M 0.00000 5 (0.00, 200.00, 0.00), (800.00, 200.00), 8.01
s -t 0.000000000 -Hs 0 -Hd -2 -Ni 0 -Nx 0.00 -Ny 50.00 -Nz 0.00 -Ne -1.000000 -Nl AGT -Nw --- -Ma 0 -Md 0 -Ms 0 -Mt 0 -Is 0.0 -Id 5.0 -It cbr -Il 512 -If 0 -Ii 0 -Iv 32 -Pn cbr -Pi 0 -Pf 0 -Po 0 
r -t 0.000000000 -Hs 0 -Hd -2 -Ni 0 -Nx 0.00 -Ny 50.00 -Nz 0.00 -Ne -1.000000 -Nl RTR -Nw --- -Ma 0 -Md 0 -Ms 0 -Mt 0 -Is 0.0 -Id 5.0 -It cbr -Il 512 -If 0 -Ii 0 -Iv 32 -Pn cbr -Pi 0 -Pf 0 -Po 0 
s -t 0.000000000 -Hs 0 -Hd -2 -Ni 0 -Nx 0.00 -Ny 50.00 -Nz 0.00 -Ne -1.000000 -Nl RTR -Nw --- -Ma 0 -Md 0 -Ms 0 -Mt 0 -Is 0.255 -Id -1.255 -It AODV -Il 48 -If 0 -Ii 0 -Iv 30 -P aodv -Pt 0x2 -Ph 1 -Pb 1 -Pd 5 -Pds 0 -Ps 0 -Pss 4 -Pc REQUEST 
r -t 0.001408500 -Hs 5 -Hd -2 -Ni 5 -Nx 0.01 -Ny 200.00 -Nz 0.00 -Ne -1.000000 -Nl RTR -Nw --- -Ma 0 -Md ffffffff -Ms 0 -Mt 800 -Is 0.255 -Id -1.255 -It AODV -Il 48 -If 0 -Ii 0 -Iv 30 -P aodv -Pt 0x2 -Ph 1 -Pb 1 -Pd 5 -Pds 0 -Ps 0 -Pss 4 -Pc REQUEST 
s -t 0.001408500 -Hs 5 -Hd 0 -Ni 5 -Nx 0.01 -Ny 200.00 -Nz 0.00 -Ne -1.000000 -Nl RTR -Nw --- -Ma 0 -Md 0 -Ms 0 -Mt 0 -Is 5.255 -Id 0.255 -It AODV -Il 44 -If 0 -Ii 0 -Iv 30 -P aodv -Pt 0x4 -Ph 1 -Pd 5 -Pds 4 -Pl 10.000000 -Pc REPLY 
r -t 0.001408667 -Hs 1 -Hd -2 -Ni 1 -Nx 200.00 -Ny 50.00 -Nz 0.00 -Ne -1.000000 -Nl RTR -Nw --- -Ma 0 -Md ffffffff -Ms 0 -Mt 800 -Is 0.255 -Id -1.255 -It AODV -Il 48 -If 0 -Ii 0 -Iv 30 -P aodv -Pt 0x2 -Ph 1 -Pb 1 -Pd 5 -Pds 0 -Ps 0 -Pss 4 -Pc REQUEST 
s -t 0.001550713 -Hs 1 -Hd -2 -Ni 1 -Nx 200.00 -Ny 50.00 -Nz 0.00 -Ne -1.000000 -Nl RTR -Nw --- -Ma 0 -Md ffffffff -Ms 0 -Mt 800 -Is 1.255 -Id -1.255 -It AODV -Il 48 -If 0 -Ii 0 -Iv 29 -P aodv -Pt 0x2 -Ph 2 -Pb 1 -Pd 5 -Pds 0 -Ps 0 -Pss 4 -Pc REQUEST 
r -t 0.005311000 -Hs 0 -Hd -2 -Ni 0 -Nx 0.00 -Ny 50.00 -Nz 0.00 -Ne -1.000000 -Nl RTR -Nw --- -Ma 0 -Md ffffffff -Ms 1 -Mt 800 -Is 1.255 -Id -1.255 -It AODV -Il 48 -If 0 -Ii 0 -Iv 29 -P aodv -Pt 0x2 -Ph 2 -Pb 1 -Pd 5 -Pds 0 -Ps 0 -Pss 4 -Pc REQUEST 
r -t 0.005311000 -Hs 2 -Hd -2 -Ni 2 -Nx 400.00 -Ny 50.00 -Nz 0.00 -Ne -1.000000 -Nl RTR -Nw --- -Ma 0 -Md ffffffff -Ms 1 -Mt 800 -Is 1.255 -Id -1.255 -It AODV -Il 48 -If 0 -Ii 0 -Iv 29 -P aodv -Pt 0x2 -Ph 2 -Pb 1 -Pd 5 -Pds 0 -Ps 0 -Pss 4 -Pc REQUEST 
r -t 0.005311166 -Hs 5 -Hd -2 -Ni 5 -Nx 0.04 -Ny 200.00 -Nz 0.00 -Ne -1.000000 -Nl RTR -Nw --- -Ma 0 -Md ffffffff -Ms 1 -Mt 800 -Is 1.255 -Id -1.255 -It AODV -Il 48 -If 0 -Ii 0 -Iv 29 -P aodv -Pt 0x2 -Ph 2 -Pb 1 -Pd 5 -Pds 0 -Ps 0 -Pss 4 -Pc REQUEST 
r -t 0.007014666 -Hs 0 -Hd 0 -Ni 0 -Nx 0.00 -Ny 50.00 -Nz 0.00 -Ne -1.000000 -Nl RTR -Nw --- -Ma 13a -Md 0 -Ms 5 -Mt 800 -Is 5.255 -Id 0.255 -It AODV -Il 44 -If 0 -Ii 0 -Iv 30 -P aodv -Pt 0x4 -Ph 1 -Pd 5 -Pds 4 -Pl 10.000000 -Pc REPLY 
s -t 0.007014666 -Hs 0 -Hd 5 -Ni 0 -Nx 0.00 -Ny 50.00 -Nz 0.00 -Ne -1.000000 -Nl RTR -Nw --- -Ma 0 -Md 0 -Ms 0 -Mt 0 -Is 0.0 -Id 5.0 -It cbr -Il 532 -If 0 -Ii 0 -Iv 30 -Pn cbr -Pi 0 -Pf 0 -Po 0 
s -t 0.008401790 -Hs 2 -Hd -2 -Ni 2 -Nx 400.00 -Ny 50.00 -Nz 0.00 -Ne -1.000000 -Nl RTR -Nw --- -Ma 0 -Md ffffffff -Ms 1 -Mt 800 -Is 2.255 -Id -1.255 -It AODV -Il 48 -If 0 -Ii 0 -Iv 28 -P aodv -Pt 0x2 -Ph 3 -Pb 1 -Pd 5 -Pds 0 -Ps 0 -Pss 4 -Pc REQUEST 
r -t 0.012816166 -Hs 5 -Hd 5 -Ni 5 -Nx 0.10 -Ny 200.00 -Nz 0.00 -Ne -1.000000 -Nl AGT -Nw --- -Ma 13a -Md 5 -Ms 0 -Mt 800 -Is 0.0 -Id 5.0 -It cbr -Il 532 -If 0 -Ii 0 -Iv 30 -Pn cbr -Pi 0 -Pf 1 -Po 0 
r -t 0.014434257 -Hs 1 -Hd -2 -Ni 1 -Nx 200.00 -Ny 50.00 -Nz 0.00 -Ne -1.000000 -Nl RTR -Nw --- -Ma 0 -Md ffffffff -Ms 2 -Mt 800 -Is 2.255 -Id -1.255 -It AODV -Il 48 -If 0 -Ii 0 -Iv 28 -P aodv -Pt 0x2 -Ph 3 -Pb 1 -Pd 5 -Pds 0 -Ps 0 -Pss 4 -Pc REQUEST 
r -t 0.014434257 -Hs 3 -Hd -2 -Ni 3 -Nx 600.00 -Ny 50.00 -Nz 0.00 -Ne -1.000000 -Nl RTR -Nw --- -Ma 0 -Md ffffffff -Ms 2 -Mt 800 -Is 2.255 -Id -1.255 -It AODV -Il 48 -If 0 -Ii 0 -Iv 28 -P aodv -Pt 0x2 -Ph 3 -Pb 1 -Pd 5 -Pds 0 -Ps 0 -Pss 4 -Pc REQUEST 
s -t 0.015572339 -Hs 3 -Hd -2 -Ni 3 -Nx 600.00 -Ny 50.00 -Nz 0.00 -Ne -1.000000 -Nl RTR -Nw --- -Ma 0 -Md ffffffff -Ms 2 -Mt 800 -Is 3.255 -Id -1.255 -It AODV -Il 48 -If 0 -Ii 0 -Iv 27 -P aodv -Pt 0x2 -Ph 4 -Pb 1 -Pd 5 -Pds 0 -Ps 0 -Pss 4 -Pc REQUEST 
r -t 0.016761006 -Hs 2 -Hd -2 -Ni 2 -Nx 400.00 -Ny 50.00 -Nz 0.00 -Ne -1.000000 -Nl RTR -Nw --- -Ma 0 -Md ffffffff -Ms 3 -Mt 800 -Is 3.255 -Id -1.255 -It AODV -Il 48 -If 0 -Ii 0 -Iv 27 -P aodv -Pt 0x2 -Ph 4 -Pb 1 -Pd 5 -Pds 0 -Ps 0 -Pss 4 -Pc REQUEST 
r -t 0.016761006 -Hs 4 -Hd -2 -Ni 4 -Nx 800.00 -Ny 50.00 -Nz 0.00 -Ne -1.000000 -Nl RTR -Nw --- -Ma 0 -Md ffffffff -Ms 3 -Mt 800 -Is 3.255 -Id -1.255 -It AODV -Il 48 -If 0 -Ii 0 -Iv 27 -P aodv -Pt 0x2 -Ph 4 -Pb 1 -Pd 5 -Pds 0 -Ps 0 -Pss 4 -Pc REQUEST 
s -t 0.018509059 -Hs 4 -Hd -2 -Ni 4 -Nx 800.00 -Ny 50.00 -Nz 0.00 -Ne -1.000000 -Nl RTR -Nw --- -Ma 0 -Md ffffffff -Ms 3 -Mt 800 -Is 4.255 -Id -1.255 -It AODV -Il 48 -If 0 -Ii 0 -Iv 26 -P aodv -Pt 0x2 -Ph 5 -Pb 1 -Pd 5 -Pds 0 -Ps 0 -Pss 4 -Pc REQUEST 
r -t 0.019797725 -Hs 3 -Hd -2 -Ni 3 -Nx 600.00 -Ny 50.00 -Nz 0.00 -Ne -1.000000 -Nl RTR -Nw --- -Ma 0 -Md ffffffff -Ms 4 -Mt 800 -Is 4.255 -Id -1.255 -It AODV -Il 48 -If 0 -Ii 0 -Iv 26 -P aodv -Pt 0x2 -Ph 5 -Pb 1 -Pd 5 -Pds 0 -Ps 0 -Pss 4 -Pc REQUEST 
s -t 0.020480000 -Hs 0 -Hd -2 -Ni 0 -Nx 0.00 -Ny 50.00 -Nz 0.00 -Ne -1.000000 -Nl AGT -Nw --- -Ma 0 -Md 0 -Ms 0 -Mt 0 -Is 0.0 -Id 5.0 -It cbr -Il 512 -If 0 -Ii 1 -Iv 32 -Pn cbr -Pi 1 -Pf 0 -Po 0 
r -t 0.020480000 -Hs 0 -Hd -2 -Ni 0 -Nx 0.00 -Ny 50.00 -Nz 0.00 -Ne -1.000000 -Nl RTR -Nw --- -Ma 0 -Md 0 -Ms 0 -Mt 0 -Is 0.0 -Id 5.0 -It cbr -Il 512 -If 0 -Ii 1 -Iv 32 -Pn cbr -Pi 1 -Pf 0 -Po 0 
s -t 0.020480000 -Hs 0 -Hd 5 -Ni 0 -Nx 0.00 -Ny 50.00 -Nz 0.00 -Ne -1.000000 -Nl RTR -Nw --- -Ma 0 -Md 0 -Ms 0 -Mt 0 -Is 0.0 -Id 5.0 -It cbr -Il 532 -If 0 -Ii 1 -Iv 30 -Pn cbr -Pi 1 -Pf 0 -Po 0 
r -t 0.026177500 -Hs 5 -Hd 5 -Ni 5 -Nx 0.21 -Ny 200.00 -Nz 0.00 -Ne -1.000000 -Nl AGT -Nw --- -Ma 13a -Md 5 -Ms 0 -Mt 800 -Is 0.0 -Id 5.0 -It cbr -Il 532 -If 0 -Ii 1 -Iv 30 -Pn cbr -Pi 1 -Pf 1 -Po 0 
s -t 0.040960000 -Hs 0 -Hd -2 -Ni 0 -Nx 0.00 -Ny 50.00 -Nz 0.00 -Ne -1.000000 -Nl AGT -Nw --- -Ma 0 -Md 0 -Ms 0 -Mt 0 -Is 0.0 -Id 5.0 -It cbr -Il 512 -If 0 -Ii 2 -Iv 32 -Pn cbr -Pi 2 -Pf 0 -Po 0 
r -t 0.040960000 -Hs 0 -Hd -2 -Ni 0 -Nx 0.00 -Ny 50.00 -Nz 0.00 -Ne -1.000000 -Nl RTR -Nw --- -Ma 0 -Md 0 -Ms 0 -Mt 0 -Is 0.0 -Id 5.0 -It cbr -Il 512 -If 0 -Ii 2 -Iv 32 -Pn cbr -Pi 2 -Pf 0 -Po 0 
s -t 0.040960000 -Hs 0 -Hd 5 -Ni 0 -Nx 0.00 -Ny 50.00 -Nz 0.00 -Ne -1.000000 -Nl RTR -Nw --- -Ma 0 -Md 0 -Ms 0 -Mt 0 -Is 0.0 -Id 5.0 -It cbr -Il 532 -If 0 -Ii 2 -Iv 30 -Pn cbr -Pi 2 -Pf 0 -Po 0 
r -t 0.046477500 -Hs 5 -Hd 5 -Ni 5 -Nx 0.37 -Ny 200.00 -Nz 0.00 -Ne -1.000000 -Nl AGT -Nw --- -Ma 13a -Md 5 -Ms 0 -Mt 800 -Is 0.0 -Id 5.0 -It cbr -Il 532 -If 0 -Ii 2 -Iv 30 -Pn cbr -Pi 2 -Pf 1 -Po 0 
s -t 0.061440000 -Hs 0 -Hd -2 -Ni 0 -Nx 0.00 -Ny 50.00 -Nz 0.00 -Ne -1.000000 -Nl AGT -Nw --- -Ma 0 -Md 0 -Ms 0 -Mt 0 -Is 0.0 -Id 5.0 -It cbr -Il 512 -If 0 -Ii 3 -Iv 32 -Pn cbr -Pi 3 -Pf 0 -Po 0 
r -t 0.061440000 -Hs 0 -Hd -2 -Ni 0 -Nx 0.00 -Ny 50.00 -Nz 0.00 -Ne -1.000000 -Nl RTR -Nw --- -Ma 0 -Md 0 -Ms 0 -Mt 0 -Is 0.0 -Id 5.0 -It cbr -Il 512 -If 0 -Ii 3 -Iv 32 -Pn cbr -Pi 3 -Pf 0 -Po 0 
s -t 0.061440000 -Hs 0 -Hd 5 -Ni 0 -Nx 0.00 -Ny 50.00 -Nz 0.00 -Ne -1.000000 -Nl RTR -Nw --- -Ma 0 -Md 0 -Ms 0 -Mt 0 -Is 0.0 -Id 5.0 -It cbr -Il 532 -If 0 -Ii 3 -Iv 30 -Pn cbr -Pi 3 -Pf 0 -Po 0 
r -t 0.067377500 -Hs 5 -Hd 5 -Ni 5 -Nx 0.54 -Ny 200.00 -Nz 0.00 -Ne -1.000000 -Nl AGT -Nw --- -Ma 13a -Md 5 -Ms 0 -Mt 800 -Is 0.0 -Id 5.0 -It cbr -Il 532 -If 0 -Ii 3 -Iv 30 -Pn cbr -Pi 3 -Pf 1 -Po 0 
s -t 0.081920000 -Hs 0 -Hd -2 -Ni 0 -Nx 0.00 -Ny 50.00 -Nz 0.00 -Ne -1.000000 -Nl AGT -Nw --- -Ma 0 -Md 0 -Ms 0 -Mt 0 -Is 0.0 -Id 5.0 -It cbr -Il 512 -If 0 -Ii 4 -Iv 32 -Pn cbr -Pi 4 -Pf 0 -Po 0 
r -t 0.081920000 -Hs 0 -Hd -2 -Ni 0 -Nx 0.00 -Ny 50.00 -Nz 0.00 -Ne -1.000000 -Nl RTR -Nw --- -Ma 0 -Md 0 -Ms 0 -Mt 0 -Is 0.0 -Id 5.0 -It cbr -Il 512 -If 0 -Ii 4 -Iv 32 -Pn cbr -Pi 4 -Pf 0 -Po 0 
s -t 0.081920000 -Hs 0 -Hd 5 -Ni 0 -Nx 0.00 -Ny 50.00 -Nz 0.00 -Ne -1.000000 -Nl RTR -Nw --- -Ma 0 -Md 0 -Ms 0 -Mt 0 -Is 0.0 -Id 5.0 -It cbr -Il 532 -If 0 -Ii 4 -Iv 30 -Pn cbr -Pi 4 -Pf 0 -Po 0 
r -t 0.087997500 -Hs 5 -Hd 5 -Ni 5 -Nx 0.70 -Ny 200.00 -Nz 0.00 -Ne -1.000000 -Nl AGT -Nw --- -Ma 13a -Md 5 -Ms 0 -Mt 800 -Is 0.0 -Id 5.0 -It cbr -Il 532 -If 0 -Ii 4 -Iv 30 -Pn cbr -Pi 4 -Pf 1 -Po 0 
s -t 0.102400000 -Hs 0 -Hd -2 -Ni 0 -Nx 0.00 -Ny 50.00 -Nz 0.00 -Ne -1.000000 -Nl AGT -Nw --- -Ma 0 -Md 0 -Ms 0 -Mt 0 -Is 0.0 -Id 5.0 -It cbr -Il 512 -If 0 -Ii 5 -Iv 32 -Pn cbr -Pi 5 -Pf 0 -Po 0 
r -t 0.102400000 -Hs 0 -Hd -2 -Ni 0 -Nx 0.00 -Ny 50.00 -Nz 0.00 -Ne -1.000000 -Nl RTR -Nw --- -Ma 0 -Md 0 -Ms 0 -Mt 0 -Is 0.0 -Id 5.0 -It cbr -Il 512 -If 0 -Ii 5 -Iv 32 -Pn cbr -Pi 5 -Pf 0 -Po 0 
s -t 0.102400000 -Hs 0 -Hd 5 -Ni 0 -Nx 0.00 -Ny 50.00 -Nz 0.00 -Ne -1.000000 -Nl RTR -Nw --- -Ma 0 -Md 0 -Ms 0 -Mt 0 -Is 0.0 -Id 5.0 -It cbr -Il 532 -If 0 -Ii 5 -Iv 30 -Pn cbr -Pi 5 -Pf 0 -Po 0 
r -t 0.108437500 -Hs 5 -Hd 5 -Ni 5 -Nx 0.87 -Ny 200.00 -Nz 0.00 -Ne -1.000000 -Nl AGT -Nw --- -Ma 13a -Md 5 -Ms 0 -Mt 800 -Is 0.0 -Id 5.0 -It cbr -Il 532 -If 0 -Ii 5 -Iv 30 -Pn cbr -Pi 5 -Pf 1 -Po 0 
s -t 0.122880000 -Hs 0 -Hd -2 -Ni 0 -Nx 0.00 -Ny 50.00 -Nz 0.00 -Ne -1.000000 -Nl AGT -Nw --- -Ma 0 -Md 0 -Ms 0 -Mt 0 -Is 0.0 -Id 5.0 -It cbr -Il 512 -If 0 -Ii 6 -Iv 32 -Pn cbr -Pi 6 -Pf 0 -Po 0 
r -t 0.122880000 -Hs 0 -Hd -2 -Ni 0 -Nx 0.00 -Ny 50.00 -Nz 0.00 -Ne -1.000000 -Nl RTR -Nw --- -Ma 0 -Md 0 -Ms 0 -Mt 0 -Is 0.0 -Id 5.0 -It cbr -Il 512 -If 0 -Ii 6 -Iv 32 -Pn cbr -Pi 6 -Pf 0 -Po 0 
s -t 0.122880000 -Hs 0 -Hd 5 -Ni 0 -Nx 0.00 -Ny 50.00 -Nz 0.00 -Ne -1.000000 -Nl RTR -Nw --- -Ma 0 -Md 0 -Ms 0 -Mt 0 -Is 0.0 -Id 5.0 -It cbr -Il 532 -If 0 -Ii 6 -Iv 30 -Pn cbr -Pi 6 -Pf 0 -Po 0 
r -t 0.128417500 -Hs 5 -Hd 5 -Ni 5 -Nx 1.03 -Ny 200.00 -Nz 0.00 -Ne -1.000000 -Nl AGT -Nw --- -Ma 13a -Md 5 -Ms 0 -Mt 800 -Is 0.0 -Id 5.0 -It cbr -Il 532 -If 0 -Ii 6 -Iv 30 -Pn cbr -Pi 6 -Pf 1 -Po 0 
s -t 0.143360000 -Hs 0 -Hd -2 -Ni 0 -Nx 0.00 -Ny 50.00 -Nz 0.00 -Ne -1.000000 -Nl AGT -Nw --- -Ma 0 -Md 0 -Ms 0 -Mt 0 -Is 0.0 -Id 5.0 -It cbr -Il 512 -If 0 -Ii 7 -Iv 32 -Pn cbr -Pi 7 -Pf 0 -Po 0 
r -t 0.143360000 -Hs 0 -Hd -2 -Ni 0 -Nx 0.00 -Ny 50.00 -Nz 0.00 -Ne -1.000000 -Nl RTR -Nw --- -Ma 0 -Md 0 -Ms 0 -Mt 0 -Is 0.0 -Id 5.0 -It cbr -Il 512 -If 0 -Ii 7 -Iv 32 -Pn cbr -Pi 7 -Pf 0 -Po 0 
s -t 0.143360000 -Hs 0 -Hd 5 -Ni 0 -Nx 0.00 -Ny 50.00 -Nz 0.00 -Ne -1.000000 -Nl RTR -Nw --- -Ma 0 -Md 0 -Ms 0 -Mt 0 -Is 0.0 -Id 5.0 -It cbr -Il 532 -If 0 -Ii 7 -Iv 30 -Pn cbr -Pi 7 -Pf 0 -Po 0 
r -t 0.149217500 -Hs 5 -Hd 5 -Ni 5 -Nx 1.20 -Ny 200.00 -Nz 0.00 -Ne -1.000000 -Nl AGT -Nw --- -Ma 13a -Md 5 -Ms 0 -Mt 800 -Is 0.0 -Id 5.0 -It cbr -Il 532 -If 0 -Ii 7 -Iv 30 -Pn cbr -Pi 7 -Pf 1 -Po 0 
s -t 0.163840000 -Hs 0 -Hd -2 -Ni 0 -Nx 0.00 -Ny 50.00 -Nz 0.00 -Ne -1.000000 -Nl AGT -Nw --- -Ma 0 -Md 0 -Ms 0 -Mt 0 -Is 0.0 -Id 5.0 -It cbr -Il 512 -If 0 -Ii 8 -Iv 32 -Pn cbr -Pi 8 -Pf 0 -Po 0 
r -t 0.163840000 -Hs 0 -Hd -2 -Ni 0 -Nx 0.00 -Ny 50.00 -Nz 0.00 -Ne -1.000000 -Nl RTR -Nw --- -Ma 0 -Md 0 -Ms 0 -Mt 0 -Is 0.0 -Id 5.0 -It cbr -Il 512 -If 0 -Ii 8 -Iv 32 -Pn cbr -Pi 8 -Pf 0 -Po 0 
s -t 0.163840000 -Hs 0 -Hd 5 -Ni 0 -Nx 0.00 -Ny 50.00 -Nz 0.00 -Ne -1.000000 -Nl RTR -Nw --- -Ma 0 -Md 0 -Ms 0 -Mt 0 -Is 0.0 -Id 5.0 -It cbr -Il 532 -If 0 -Ii 8 -Iv 30 -Pn cbr -Pi 8 -Pf 0 -Po 0 
r -t 0.169417500 -Hs 5 -Hd 5 -Ni 5 -Nx 1.36 -Ny 200.00 -Nz 0.00 -Ne -1.000000 -Nl AGT -Nw --- -Ma 13a -Md 5 -Ms 0 -Mt 800 -Is 0.0 -Id 5.0 -It cbr -Il 532 -If 0 -Ii 8 -Iv 30 -Pn cbr -Pi 8 -Pf 1 -Po 0 
s -t 0.184320000 -Hs 0 -Hd -2 -Ni 0 -Nx 0.00 -Ny 50.00 -Nz 0.00 -Ne -1.000000 -Nl AGT -Nw --- -Ma 0 -Md 0 -Ms 0 -Mt 0 -Is 0.0 -Id 5.0 -It cbr -Il 512 -If 0 -Ii 9 -Iv 32 -Pn cbr -Pi 9 -Pf 0 -Po 0 
r -t 0.184320000 -Hs 0 -Hd -2 -Ni 0 -Nx 0.00 -Ny 50.00 -Nz 0.00 -Ne -1.000000 -Nl RTR -Nw --- -Ma 0 -Md 0 -Ms 0 -Mt 0 -Is 0.0 -Id 5.0 -It cbr -Il 512 -If 0 -Ii 9 -Iv 32 -Pn cbr -Pi 9 -Pf 0 -Po 0 
s -t 0.184320000 -Hs 0 -Hd 5 -Ni 0 -Nx 0.00 -Ny 50.00 -Nz 0.00 -Ne -1.000000 -Nl RTR -Nw --- -Ma 0 -Md 0 -Ms 0 -Mt 0 -Is 0.0 -Id 5.0 -It cbr -Il 532 -If 0 -Ii 9 -Iv 30 -Pn cbr -Pi 9 -Pf 0 -Po 0 
r -t 0.190017500 -Hs 5 -Hd 5 -Ni 5 -Nx 1.52 -Ny 200.00 -Nz 0.00 -Ne -1.000000 -Nl AGT -Nw --- -Ma 13a -Md 5 -Ms 0 -Mt 800 -Is 0.0 -Id 5.0 -It cbr -Il 532 -If 0 -Ii 9 -Iv 30 -Pn cbr -Pi 9 -Pf 1 -Po 0 
s -t 0.204800000 -Hs 0 -Hd -2 -Ni 0 -Nx 0.00 -Ny 50.00 -Nz 0.00 -Ne -1.000000 -Nl AGT -Nw --- -Ma 0 -Md 0 -Ms 0 -Mt 0 -Is 0.0 -Id 5.0 -It cbr -Il 512 -If 0 -Ii 10 -Iv 32 -Pn cbr -Pi 10 -Pf 0 -Po 0 
r -t 0.204800000 -Hs 0 -Hd -2 -Ni 0 -Nx 0.00 -Ny 50.00 -Nz 0.00 -Ne -1.000000 -Nl RTR -Nw --- -Ma 0 -Md 0 -Ms 0 -Mt 0 -Is 0.0 -Id 5.0 -It cbr -Il 512 -If 0 -Ii 10 -Iv 32 -Pn cbr -Pi 10 -Pf 0 -Po 0 
s -t 0.204800000 -Hs 0 -Hd 5 -Ni 0 -Nx 0.00 -Ny 50.00 -Nz 0.00 -Ne -1.000000 -Nl RTR -Nw --- -Ma 0 -Md 0 -Ms 0 -Mt 0 -Is 0.0 -Id 5.0 -It cbr -Il 532 -If 0 -Ii 10 -Iv 30 -Pn cbr -Pi 10 -Pf 0 -Po 0 
r -t 0.210817500 -Hs 5 -Hd 5 -Ni 5 -Nx 1.69 -Ny 200.00 -Nz 0.00 -Ne -1.000000 -Nl AGT -Nw --- -Ma 13a -Md 5 -Ms 0 -Mt 800 -Is 0.0 -Id 5.0 -It cbr -Il 532 -If 0 -Ii 10 -Iv 30 -Pn cbr -Pi 10 -Pf 1 -Po 0 
s -t 0.225280000 -Hs 0 -Hd -2 -Ni 0 -Nx 0.00 -Ny 50.00 -Nz 0.00 -Ne -1.000000 -Nl AGT -Nw --- -Ma 0 -Md 0 -Ms 0 -Mt 0 -Is 0.0 -Id 5.0 -It cbr -Il 512 -If 0 -Ii 11 -Iv 32 -Pn cbr -Pi 11 -Pf 0 -Po 0 
r -t 0.225280000 -Hs 0 -Hd -2 -Ni 0 -Nx 0.00 -Ny 50.00 -Nz 0.00 -Ne -1.000000 -Nl RTR -Nw --- -Ma 0 -Md 0 -Ms 0 -Mt 0 -Is 0.0 -Id 5.0 -It cbr -Il 512 -If 0 -Ii 11 -Iv 32 -Pn cbr -Pi 11 -Pf 0 -Po 0 
s -t 0.225280000 -Hs 0 -Hd 5 -Ni 0 -Nx 0.00 -Ny 50.00 -Nz 0.00 -Ne -1.000000 -Nl RTR -Nw --- -Ma 0 -Md 0 -Ms 0 -Mt 0 -Is 0.0 -Id 5.0 -It cbr -Il 532 -If 0 -Ii 11 -Iv 30 -Pn cbr -Pi 11 -Pf 0 -Po 0 
r -t 0.230977500 -Hs 5 -Hd 5 -Ni 5 -Nx 1.85 -Ny 200.00 -Nz 0.00 -Ne -1.000000 -Nl AGT -Nw --- -Ma 13a -Md 5 -Ms 0 -Mt 800 -Is 0.0 -Id 5.0 -It cbr -Il 532 -If 0 -Ii 11 -Iv 30 -Pn cbr -Pi 11 -Pf 1 -Po 0 
s -t 0.245760000 -Hs 0 -Hd -2 -Ni 0 -Nx 0.00 -Ny 50.00 -Nz 0.00 -Ne -1.000000 -Nl AGT -Nw --- -Ma 0 -Md 0 -Ms 0 -Mt 0 -Is 0.0 -Id 5.0 -It cbr -Il 512 -If 0 -Ii 12 -Iv 32 -Pn cbr -Pi 12 -Pf 0 -Po 0 
r -t 0.245760000 -Hs 0 -Hd -2 -Ni 0 -Nx 0.00 -Ny 50.00 -Nz 0.00 -Ne -1.000000 -Nl RTR -Nw --- -Ma 0 -Md 0 -Ms 0 -Mt 0 -Is 0.0 -Id 5.0 -It cbr -Il 512 -If 0 -Ii 12 -Iv 32 -Pn cbr -Pi 12 -Pf 0 -Po 0 
s -t 0.245760000 -Hs 0 -Hd 5 -Ni 0 -Nx 0.00 -Ny 50.00 -Nz 0.00 -Ne -1.000000 -Nl RTR -Nw --- -Ma 0 -Md 0 -Ms 0 -Mt 0 -Is 0.0 -Id 5.0 -It cbr -Il 532 -If 0 -Ii 12 -Iv 30 -Pn cbr -Pi 12 -Pf 0 -Po 0 
r -t 0.251317500 -Hs 5 -Hd 5 -Ni 5 -Nx 2.01 -Ny 200.00 -Nz 0.00 -Ne -1.000000 -Nl AGT -Nw --- -Ma 13a -Md 5 -Ms 0 -Mt 800 -Is 0.0 -Id 5.0 -It cbr -Il 532 -If 0 -Ii 12 -Iv 30 -Pn cbr -Pi 12 -Pf 1 -Po 0 
s -t 0.266240000 -Hs 0 -Hd -2 -Ni 0 -Nx 0.00 -Ny 50.00 -Nz 0.00 -Ne -1.000000 -Nl AGT -Nw --- -Ma 0 -Md 0 -Ms 0 -Mt 0 -Is 0.0 -Id 5.0 -It cbr -Il 512 -If 0 -Ii 13 -Iv 32 -Pn cbr -Pi 13 -Pf 0 -Po 0 
r -t 0.266240000 -Hs 0 -Hd -2 -Ni 0 -Nx 0.00 -Ny 50.00 -Nz 0.00 -Ne -1.000000 -Nl RTR -Nw --- -Ma 0 -Md 0 -Ms 0 -Mt 0 -Is 0.0 -Id 5.0 -It cbr -Il 512 -If 0 -Ii 13 -Iv 32 -Pn cbr -Pi 13 -Pf 0 -Po 0 
s -t 0.266240000 -Hs 0 -Hd 5 -Ni 0 -Nx 0.00 -Ny 50.00 -Nz 0.00 -Ne -1.000000 -Nl RTR -Nw --- -Ma 0 -Md 0 -Ms 0 -Mt 0 -Is 0.0 -Id 5.0 -It cbr -Il 532 -If 0 -Ii 13 -Iv 30 -Pn cbr -Pi 13 -Pf 0 -Po 0 
r -t 0.272077500 -Hs 5 -Hd 5 -Ni 5 -Nx 2.18 -Ny 200.00 -Nz 0.00 -Ne -1.000000 -Nl AGT -Nw --- -Ma 13a -Md 5 -Ms 0 -Mt 800 -Is 0.0 -Id 5.0 -It cbr -Il 532 -If 0 -Ii 13 -Iv 30 -Pn cbr -Pi 13 -Pf 1 -Po 0 
s -t 0.286720000 -Hs 0 -Hd -2 -Ni 0 -Nx 0.00 -Ny 50.00 -Nz 0.00 -Ne -1.000000 -Nl AGT -Nw --- -Ma 0 -Md 0 -Ms 0 -Mt 0 -Is 0.0 -Id 5.0 -It cbr -Il 512 -If 0 -Ii 14 -Iv 32 -Pn cbr -Pi 14 -Pf 0 -Po 0 
r -t 0.286720000 -Hs 0 -Hd -2 -Ni 0 -Nx 0.00 -Ny 50.00 -Nz 0.00 -Ne -1.000000 -Nl RTR -Nw --- -Ma 0 -Md 0 -Ms 0 -Mt 0 -Is 0.0 -Id 5.0 -It cbr -Il 512 -If 0 -Ii 14 -Iv 32 -Pn cbr -Pi 14 -Pf 0 -Po 0 
s -t 0.286720000 -Hs 0 -Hd 5 -Ni 0 -Nx 0.00 -Ny 50.00 -Nz 0.00 -Ne -1.000000 -Nl RTR -Nw --- -Ma 0 -Md 0 -Ms 0 -Mt 0 -Is 0.0 -Id 5.0 -It cbr -Il 532 -If 0 -Ii 14 -Iv 30 -Pn cbr -Pi 14 -Pf 0 -Po 0 
r -t 0.292497500 -Hs 5 -Hd 5 -Ni 5 -Nx 2.34 -Ny 200.00 -Nz 0.00 -Ne -1.000000 -Nl AGT -Nw --- -Ma 13a -Md 5 -Ms 0 -Mt 800 -Is 0.0 -Id 5.0 -It cbr -Il 532 -If 0 -Ii 14 -Iv 30 -Pn cbr -Pi 14 -Pf 1 -Po 0 
s -t 0.307200000 -Hs 0 -Hd -2 -Ni 0 -Nx 0.00 -Ny 50.00 -Nz 0.00 -Ne -1.000000 -Nl AGT -Nw --- -Ma 0 -Md 0 -Ms 0 -Mt 0 -Is 0.0 -Id 5.0 -It cbr -Il 512 -If 0 -Ii 15 -Iv 32 -Pn cbr -Pi 15 -Pf 0 -Po 0 
r -t 0.307200000 -Hs 0 -Hd -2 -Ni 0 -Nx 0.00 -Ny 50.00 -Nz 0.00 -Ne -1.000000 -Nl RTR -Nw --- -Ma 0 -Md 0 -Ms 0 -Mt 0 -Is 0.0 -Id 5.0 -It cbr -Il 512 -If 0 -Ii 15 -Iv 32 -Pn cbr -Pi 15 -Pf 0 -Po 0 
s -t 0.307200000 -Hs 0 -Hd 5 -Ni 0 -Nx 0.00 -Ny 50.00 -Nz 0.00 -Ne -1.000000 -Nl RTR -Nw --- -Ma 0 -Md 0 -Ms 0 -Mt 0 -Is 0.0 -Id 5.0 -It cbr -Il 532 -If 0 -Ii 15 -Iv 30 -Pn cbr -Pi 15 -Pf 0 -Po 0 
r -t 0.312977500 -Hs 5 -Hd 5 -Ni 5 -Nx 2.51 -Ny 200.00 -Nz 0.00 -Ne -1.000000 -Nl AGT -Nw --- -Ma 13a -Md 5 -Ms 0 -Mt 800 -Is 0.0 -Id 5.0 -It cbr -Il 532 -If 0 -Ii 15 -Iv 30 -Pn cbr -Pi 15 -Pf 1 -Po 0 
s -t 0.327680000 -Hs 0 -Hd -2 -Ni 0 -Nx 0.00 -Ny 50.00 -Nz 0.00 -Ne -1.000000 -Nl AGT -Nw --- -Ma 0 -Md 0 -Ms 0 -Mt 0 -Is 0.0 -Id 5.0 -It cbr -Il 512 -If 0 -Ii 16 -Iv 32 -Pn cbr -Pi 16 -Pf 0 -Po 0 
r -t 0.327680000 -Hs 0 -Hd -2 -Ni 0 -Nx 0.00 -Ny 50.00 -Nz 0.00 -Ne -1.000000 -Nl RTR -Nw --- -Ma 0 -Md 0 -Ms 0 -Mt 0 -Is 0.0 -Id 5.0 -It cbr -Il 512 -If 0 -Ii 16 -Iv 32 -Pn cbr -Pi 16 -Pf 0 -Po 0 
s -t 0.327680000 -Hs 0 -Hd 5 -Ni 0 -Nx 0.00 -Ny 50.00 -Nz 0.00 -Ne -1.000000 -Nl RTR -Nw --- -Ma 0 -Md 0 -Ms 0 -Mt 0 -Is 0.0 -Id 5.0 -It cbr -Il 532 -If 0 -Ii 16 -Iv 30 -Pn cbr -Pi 16 -Pf 0 -Po 0 
r -t 0.333177500 -Hs 5 -Hd 5 -Ni 5 -Nx 2.67 -Ny 200.00 -Nz 0.00 -Ne -1.000000 -Nl AGT -Nw --- -Ma 13a -Md 5 -Ms 0 -Mt 800 -Is 0.0 -Id 5.0 -It cbr -Il 532 -If 0 -Ii 16 -Iv 30 -Pn cbr -Pi 16 -Pf 1 -Po 0 
s -t 0.348160000 -Hs 0 -Hd -2 -Ni 0 -Nx 0.00 -Ny 50.00 -Nz 0.00 -Ne -1.000000 -Nl AGT -Nw --- -Ma 0 -Md 0 -Ms 0 -Mt 0 -Is 0.0 -Id 5.0 -It cbr -Il 512 -If 0 -Ii 17 -Iv 32 -Pn cbr -Pi 17 -Pf 0 -Po 0 
r -t 0.348160000 -Hs 0 -Hd -2 -Ni 0 -Nx 0.00 -Ny 50.00 -Nz 0.00 -Ne -1.000000 -Nl RTR -Nw --- -Ma 0 -Md 0 -Ms 0 -Mt 0 -Is 0.0 -Id 5.0 -It cbr -Il 512 -If 0 -Ii 17 -Iv 32 -Pn cbr -Pi 17 -Pf 0 -Po 0 
s -t 0.348160000 -Hs 0 -Hd 5 -Ni 0 -Nx 0.00 -Ny 50.00 -Nz 0.00 -Ne -1.000000 -Nl RTR -Nw --- -Ma 0 -Md 0 -Ms 0 -Mt 0 -Is 0.0 -Id 5.0 -It cbr -Il 532 -If 0 -Ii 17 -Iv 30 -Pn cbr -Pi 17 -Pf 0 -Po 0 
r -t 0.353977500 -Hs 5 -Hd 5 -Ni 5 -Nx 2.84 -Ny 200.00 -Nz 0.00 -Ne -1.000000 -Nl AGT -Nw --- -Ma 13a -Md 5 -Ms 0 -Mt 800 -Is 0.0 -Id 5.0 -It cbr -Il 532 -If 0 -Ii 17 -Iv 30 -Pn cbr -Pi 17 -Pf 1 -Po 0 
s -t 0.368640000 -Hs 0 -Hd -2 -Ni 0 -Nx 0.00 -Ny 50.00 -Nz 0.00 -Ne -1.000000 -Nl AGT -Nw --- -Ma 0 -Md 0 -Ms 0 -Mt 0 -Is 0.0 -Id 5.0 -It cbr -Il 512 -If 0 -Ii 18 -Iv 32 -Pn cbr -Pi 18 -Pf 0 -Po 0 
r -t 0.368640000 -Hs 0 -Hd -2 -Ni 0 -Nx 0.00 -Ny 50.00 -Nz 0.00 -Ne -1.000000 -Nl RTR -Nw --- -Ma 0 -Md 0 -Ms 0 -Mt 0 -Is 0.0 -Id 5.0 -It cbr -Il 512 -If 0 -Ii 18 -Iv 32 -Pn cbr -Pi 18 -Pf 0 -Po 0 
s -t 0.368640000 -Hs 0 -Hd 5 -Ni 0 -Nx 0.00 -Ny 50.00 -Nz 0.00 -Ne -1.000000 -Nl RTR -Nw --- -Ma 0 -Md 0 -Ms 0 -Mt 0 -Is 0.0 -Id 5.0 -It cbr -Il 532 -If 0 -Ii 18 -Iv 30 -Pn cbr -Pi 18 -Pf 0 -Po 0 
r -t 0.374357500 -Hs 5 -Hd 5 -Ni 5 -Nx 3.00 -Ny 200.00 -Nz 0.00 -Ne -1.000000 -Nl AGT -Nw --- -Ma 13a -Md 5 -Ms 0 -Mt 800 -Is 0.0 -Id 5.0 -It cbr -Il 532 -If 0 -Ii 18 -Iv 30 -Pn cbr -Pi 18 -Pf 1 -Po 0 
s -t 0.389120000 -Hs 0 -Hd -2 -Ni 0 -Nx 0.00 -Ny 50.00 -Nz 0.00 -Ne -1.000000 -Nl AGT -Nw --- -Ma 0 -Md 0 -Ms 0 -Mt 0 -Is 0.0 -Id 5.0 -It cbr -Il 512 -If 0 -Ii 19 -Iv 32 -Pn cbr -Pi 19 -Pf 0 -Po 0 
r -t 0.389120000 -Hs 0 -Hd -2 -Ni 0 -Nx 0.00 -Ny 50.00 -Nz 0.00 -Ne -1.000000 -Nl RTR -Nw --- -Ma 0 -Md 0 -Ms 0 -Mt 0 -Is 0.0 -Id 5.0 -It cbr -Il 512 -If 0 -Ii 19 -Iv 32 -Pn cbr -Pi 19 -Pf 0 -Po 0 
s -t 0.389120000 -Hs 0 -Hd 5 -Ni 0 -Nx 0.00 -Ny 50.00 -Nz 0.00 -Ne -1.000000 -Nl RTR -Nw --- -Ma 0 -Md 0 -Ms 0 -Mt 0 -Is 0.0 -Id 5.0 -It cbr -Il 532 -If 0 -Ii 19 -Iv 30 -Pn cbr -Pi 19 -Pf 0 -Po 0 
r -t 0.394917500 -Hs 5 -Hd 5 -Ni 5 -Nx 3.16 -Ny 200.00 -Nz 0.00 -Ne -1.000000 -Nl AGT -Nw --- -Ma 13a -Md 5 -Ms 0 -Mt 800 -Is 0.0 -Id 5.0 -It cbr -Il 532 -If 0 -Ii 19 -Iv 30 -Pn cbr -Pi 19 -Pf 1 -Po 0 
s -t 0.409600000 -Hs 0 -Hd -2 -Ni 0 -Nx 0.00 -Ny 50.00 -Nz 0.00 -Ne -1.000000 -Nl AGT -Nw --- -Ma 0 -Md 0 -Ms 0 -Mt 0 -Is 0.0 -Id 5.0 -It cbr -Il 512 -If 0 -Ii 20 -Iv 32 -Pn cbr -Pi 20 -Pf 0 -Po 0 
r -t 0.409600000 -Hs 0 -Hd -2 -Ni 0 -Nx 0.00 -Ny 50.00 -Nz 0.00 -Ne -1.000000 -Nl RTR -Nw --- -Ma 0 -Md 0 -Ms 0 -Mt 0 -Is 0.0 -Id 5.0 -It cbr -Il 512 -If 0 -Ii 20 -Iv 32 -Pn cbr -Pi 20 -Pf 0 -Po 0 
s -t 0.409600000 -Hs 0 -Hd 5 -Ni 0 -Nx 0.00 -Ny 50.00 -Nz 0.00 -Ne -1.000000 -Nl RTR -Nw --- -Ma 0 -Md 0 -Ms 0 -Mt 0 -Is 0.0 -Id 5.0 -It cbr -Il 532 -If 0 -Ii 20 -Iv 30 -Pn cbr -Pi 20 -Pf 0 -Po 0 
r -t 0.415337500 -Hs 5 -Hd 5 -Ni 5 -Nx 3.33 -Ny 200.00 -Nz 0.00 -Ne -1.000000 -Nl AGT -Nw --- -Ma 13a -Md 5 -Ms 0 -Mt 800 -Is 0.0 -Id 5.0 -It cbr -Il 532 -If 0 -Ii 20 -Iv 30 -Pn cbr -Pi 20 -Pf 1 -Po 0 
s -t 0.430080000 -Hs 0 -Hd -2 -Ni 0 -Nx 0.00 -Ny 50.00 -Nz 0.00 -Ne -1.000000 -Nl AGT -Nw --- -Ma 0 -Md 0 -Ms 0 -Mt 0 -Is 0.0 -Id 5.0 -It cbr -Il 512 -If 0 -Ii 21 -Iv 32 -Pn cbr -Pi 21 -Pf 0 -Po 0 
r -t 0.430080000 -Hs 0 -Hd -2 -Ni 0 -Nx 0.00 -Ny 50.00 -Nz 0.00 -Ne -1.000000 -Nl RTR -Nw --- -Ma 0 -Md 0 -Ms 0 -Mt 0 -Is 0.0 -Id 5.0 -It cbr -Il 512 -If 0 -Ii 21 -Iv 32 -Pn cbr -Pi 21 -Pf 0 -Po 0 
s -t 0.430080000 -Hs 0 -Hd 5 -Ni 0 -Nx 0.00 -Ny 50.00 -Nz 0.00 -Ne -1.000000 -Nl RTR -Nw --- -Ma 0 -Md 0 -Ms 0 -Mt 0 -Is 0.0 -Id 5.0 -It cbr -Il 532 -If 0 -Ii 21 -Iv 30 -Pn cbr -Pi 21 -Pf 0 -Po 0 
r -t 0.435857500 -Hs 5 -Hd 5 -Ni 5 -Nx 3.49 -Ny 200.00 -Nz 0.00 -Ne -1.000000 -Nl AGT -Nw --- -Ma 13a -Md 5 -Ms 0 -Mt 800 -Is 0.0 -Id 5.0 -It cbr -Il 532 -If 0 -Ii 21 -Iv 30 -Pn cbr -Pi 21 -Pf 1 -Po 0 
s -t 0.450560000 -Hs 0 -Hd -2 -Ni 0 -Nx 0.00 -Ny 50.00 -Nz 0.00 -Ne -1.000000 -Nl AGT -Nw --- -Ma 0 -Md 0 -Ms 0 -Mt 0 -Is 0.0 -Id 5.0 -It cbr -Il 512 -If 0 -Ii 22 -Iv 32 -Pn cbr -Pi 22 -Pf 0 -Po 0 
r -t 0.450560000 -Hs 0 -Hd -2 -Ni 0 -Nx 0.00 -Ny 50.00 -Nz 0.00 -Ne -1.000000 -Nl RTR -Nw --- -Ma 0 -Md 0 -Ms 0 -Mt 0 -Is 0.0 -Id 5.0 -It cbr -Il 512 -If 0 -Ii 22 -Iv 32 -Pn cbr -Pi 22 -Pf 0 -Po 0 
s -t 0.450560000 -Hs 0 -Hd 5 -Ni 0 -Nx 0.00 -Ny 50.00 -Nz 0.00 -Ne -1.000000 -Nl RTR -Nw --- -Ma 0 -Md 0 -Ms 0 -Mt 0 -Is 0.0 -Id 5.0 -It cbr -Il 532 -If 0 -Ii 22 -Iv 30 -Pn cbr -Pi 22 -Pf 0 -Po 0 
r -t 0.456537500 -Hs 5 -Hd 5 -Ni 5 -Nx 3.66 -Ny 200.00 -Nz 0.00 -Ne -1.000000 -Nl AGT -Nw --- -Ma 13a -Md 5 -Ms 0 -Mt 800 -Is 0.0 -Id 5.0 -It cbr -Il 532 -If 0 -Ii 22 -Iv 30 -Pn cbr -Pi 22 -Pf 1 -Po 0 
s -t 0.471040000 -Hs 0 -Hd -2 -Ni 0 -Nx 0.00 -Ny 50.00 -Nz 0.00 -Ne -1.000000 -Nl AGT -Nw --- -Ma 0 -Md 0 -Ms 0 -Mt 0 -Is 0.0 -Id 5.0 -It cbr -Il 512 -If 0 -Ii 23 -Iv 32 -Pn cbr -Pi 23 -Pf 0 -Po 0 
r -t 0.471040000 -Hs 0 -Hd -2 -Ni 0 -Nx 0.00 -Ny 50.00 -Nz 0.00 -Ne -1.000000 -Nl RTR -Nw --- -Ma 0 -Md 0 -Ms 0 -Mt 0 -Is 0.0 -Id 5.0 -It cbr -Il 512 -If 0 -Ii 23 -Iv 32 -Pn cbr -Pi 23 -Pf 0 -Po 0 
s -t 0.471040000 -Hs 0 -Hd 5 -Ni 0 -Nx 0.00 -Ny 50.00 -Nz 0.00 -Ne -1.000000 -Nl RTR -Nw --- -Ma 0 -Md 0 -Ms 0 -Mt 0 -Is 0.0 -Id 5.0 -It cbr -Il 532 -If 0 -Ii 23 -Iv 30 -Pn cbr -Pi 23 -Pf 0 -Po 0 
r -t 0.476657500 -Hs 5 -Hd 5 -Ni 5 -Nx 3.82 -Ny 200.00 -Nz 0.00 -Ne -1.000000 -Nl AGT -Nw --- -Ma 13a -Md 5 -Ms 0 -Mt 800 -Is 0.0 -Id 5.0 -It cbr -Il 532 -If 0 -Ii 23 -Iv 30 -Pn cbr -Pi 23 -Pf 1 -Po 0 
s -t 0.491520000 -Hs 0 -Hd -2 -Ni 0 -Nx 0.00 -Ny 50.00 -Nz 0.00 -Ne -1.000000 -Nl AGT -Nw --- -Ma 0 -Md 0 -Ms 0 -Mt 0 -Is 0.0 -Id 5.0 -It cbr -Il 512 -If 0 -Ii 24 -Iv 32 -Pn cbr -Pi 24 -Pf 0 -Po 0 
r -t 0.491520000 -Hs 0 -Hd -2 -Ni 0 -Nx 0.00 -Ny 50.00 -Nz 0.00 -Ne -1.000000 -Nl RTR -Nw --- -Ma 0 -Md 0 -Ms 0 -Mt 0 -Is 0.0 -Id 5.0 -It cbr -Il 512 -If 0 -Ii 24 -Iv 32 -Pn cbr -Pi 24 -Pf 0 -Po 0 
s -t 0.491520000 -Hs 0 -Hd 5 -Ni 0 -Nx 0.00 -Ny 50.00 -Nz 0.00 -Ne -1.000000 -Nl RTR -Nw --- -Ma 0 -Md 0 -Ms 0 -Mt 0 -Is 0.0 -Id 5.0 -It cbr -Il 532 -If 0 -Ii 24 -Iv 30 -Pn cbr -Pi 24 -Pf 0 -Po 0 
r -t 0.497057501 -Hs 5 -Hd 5 -Ni 5 -Nx 3.98 -Ny 200.00 -Nz 0.00 -Ne -1.000000 -Nl AGT -Nw --- -Ma 13a -Md 5 -Ms 0 -Mt 800 -Is 0.0 -Id 5.0 -It cbr -Il 532 -If 0 -Ii 24 -Iv 30 -Pn cbr -Pi 24 -Pf 1 -Po 0 
s -t 0.512000000 -Hs 0 -Hd -2 -Ni 0 -Nx 0.00 -Ny 50.00 -Nz 0.00 -Ne -1.000000 -Nl AGT -Nw --- -Ma 0 -Md 0 -Ms 0 -Mt 0 -Is 0.0 -Id 5.0 -It cbr -Il 512 -If 0 -Ii 25 -Iv 32 -Pn cbr -Pi 25 -Pf 0 -Po 0 
r -t 0.512000000 -Hs 0 -Hd -2 -Ni 0 -Nx 0.00 -Ny 50.00 -Nz 0.00 -Ne -1.000000 -Nl RTR -Nw --- -Ma 0 -Md 0 -Ms 0 -Mt 0 -Is 0.0 -Id 5.0 -It cbr -Il 512 -If 0 -Ii 25 -Iv 32 -Pn cbr -Pi 25 -Pf 0 -Po 0 
s -t 0.512000000 -Hs 0 -Hd 5 -Ni 0 -Nx 0.00 -Ny 50.00 -Nz 0.00 -Ne -1.000000 -Nl RTR -Nw --- -Ma 0 -Md 0 -Ms 0 -Mt 0 -Is 0.0 -Id 5.0 -It cbr -Il 532 -If 0 -Ii 25 -Iv 30 -Pn cbr -Pi 25 -Pf 0 -Po 0 
r -t 0.517617501 -Hs 5 -Hd 5 -Ni 5 -Nx 4.15 -Ny 200.00 -Nz 0.00 -Ne -1.000000 -Nl AGT -Nw --- -Ma 13a -Md 5 -Ms 0 -Mt 800 -Is 0.0 -Id 5.0 -It cbr -Il 532 -If 0 -Ii 25 -Iv 30 -Pn cbr -Pi 25 -Pf 1 -Po 0 
s -t 0.532480000 -Hs 0 -Hd -2 -Ni 0 -Nx 0.00 -Ny 50.00 -Nz 0.00 -Ne -1.000000 -Nl AGT -Nw --- -Ma 0 -Md 0 -Ms 0 -Mt 0 -Is 0.0 -Id 5.0 -It cbr -Il 512 -If 0 -Ii 26 -Iv 32 -Pn cbr -Pi 26 -Pf 0 -Po 0 
r -t 0.532480000 -Hs 0 -Hd -2 -Ni 0 -Nx 0.00 -Ny 50.00 -Nz 0.00 -Ne -1.000000 -Nl RTR -Nw --- -Ma 0 -Md 0 -Ms 0 -Mt 0 -Is 0.0 -Id 5.0 -It cbr -Il 512 -If 0 -Ii 26 -Iv 32 -Pn cbr -Pi 26 -Pf 0 -Po 0 
s -t 0.532480000 -Hs 0 -Hd 5 -Ni 0 -Nx 0.00 -Ny 50.00 -Nz 0.00 -Ne -1.000000 -Nl RTR -Nw --- -Ma 0 -Md 0 -Ms 0 -Mt 0 -Is 0.0 -Id 5.0 -It cbr -Il 532 -If 0 -Ii 26 -Iv 30 -Pn cbr -Pi 26 -Pf 0 -Po 0 
r -t 0.538077501 -Hs 5 -Hd 5 -Ni 5 -Nx 4.31 -Ny 200.00 -Nz 0.00 -Ne -1.000000 -Nl AGT -Nw --- -Ma 13a -Md 5 -Ms 0 -Mt 800 -Is 0.0 -Id 5.0 -It cbr -Il 532 -If 0 -Ii 26 -Iv 30 -Pn cbr -Pi 26 -Pf 1 -Po 0 
s -t 0.552960000 -Hs 0 -Hd -2 -Ni 0 -Nx 0.00 -Ny 50.00 -Nz 0.00 -Ne -1.000000 -Nl AGT -Nw --- -Ma 0 -Md 0 -Ms 0 -Mt 0 -Is 0.0 -Id 5.0 -It cbr -Il 512 -If 0 -Ii 27 -Iv 32 -Pn cbr -Pi 27 -Pf 0 -Po 0 
r -t 0.552960000 -Hs 0 -Hd -2 -Ni 0 -Nx 0.00 -Ny 50.00 -Nz 0.00 -Ne -1.000000 -Nl RTR -Nw --- -Ma 0 -Md 0 -Ms 0 -Mt 0 -Is 0.0 -Id 5.0 -It cbr -Il 512 -If 0 -Ii 27 -Iv 32 -Pn cbr -Pi 27 -Pf 0 -Po 0 
s -t 0.552960000 -Hs 0 -Hd 5 -Ni 0 -Nx 0.00 -Ny 50.00 -Nz 0.00 -Ne -1.000000 -Nl RTR -Nw --- -Ma 0 -Md 0 -Ms 0 -Mt 0 -Is 0.0 -Id 5.0 -It cbr -Il 532 -If 0 -Ii 27 -Iv 30 -Pn cbr -Pi 27 -Pf 0 -Po 0 
r -t 0.558717501 -Hs 5 -Hd 5 -Ni 5 -Nx 4.48 -Ny 200.00 -Nz 0.00 -Ne -1.000000 -Nl AGT -Nw --- -Ma 13a -Md 5 -Ms 0 -Mt 800 -Is 0.0 -Id 5.0 -It cbr -Il 532 -If 0 -Ii 27 -Iv 30 -Pn cbr -Pi 27 -Pf 1 -Po 0 
s -t 0.573440000 -Hs 0 -Hd -2 -Ni 0 -Nx 0.00 -Ny 50.00 -Nz 0.00 -Ne -1.000000 -Nl AGT -Nw --- -Ma 0 -Md 0 -Ms 0 -Mt 0 -Is 0.0 -Id 5.0 -It cbr -Il 512 -If 0 -Ii 28 -Iv 32 -Pn cbr -Pi 28 -Pf 0 -Po 0 
r -t 0.573440000 -Hs 0 -Hd -2 -Ni 0 -Nx 0.00 -Ny 50.00 -Nz 0.00 -Ne -1.000000 -Nl RTR -Nw --- -Ma 0 -Md 0 -Ms 0 -Mt 0 -Is 0.0 -Id 5.0 -It cbr -Il 512 -If 0 -Ii 28 -Iv 32 -Pn cbr -Pi 28 -Pf 0 -Po 0 
s -t 0.573440000 -Hs 0 -Hd 5 -Ni 0 -Nx 0.00 -Ny 50.00 -Nz 0.00 -Ne -1.000000 -Nl RTR -Nw --- -Ma 0 -Md 0 -Ms 0 -Mt 0 -Is 0.0 -Id 5.0 -It cbr -Il 532 -If 0 -Ii 28 -Iv 30 -Pn cbr -Pi 28 -Pf 0 -Po 0 
r -t 0.578997501 -Hs 5 -Hd 5 -Ni 5 -Nx 4.64 -Ny 200.00 -Nz 0.00 -Ne -1.000000 -Nl AGT -Nw --- -Ma 13a -Md 5 -Ms 0 -Mt 800 -Is 0.0 -Id 5.0 -It cbr -Il 532 -If 0 -Ii 28 -Iv 30 -Pn cbr -Pi 28 -Pf 1 -Po 0 
s -t 0.593920000 -Hs 0 -Hd -2 -Ni 0 -Nx 0.00 -Ny 50.00 -Nz 0.00 -Ne -1.000000 -Nl AGT -Nw --- -Ma 0 -Md 0 -Ms 0 -Mt 0 -Is 0.0 -Id 5.0 -It cbr -Il 512 -If 0 -Ii 29 -Iv 32 -Pn cbr -Pi 29 -Pf 0 -Po 0 
r -t 0.593920000 -Hs 0 -Hd -2 -Ni 0 -Nx 0.00 -Ny 50.00 -Nz 0.00 -Ne -1.000000 -Nl RTR -Nw --- -Ma 0 -Md 0 -Ms 0 -Mt 0 -Is 0.0 -Id 5.0 -It cbr -Il 512 -If 0 -Ii 29 -Iv 32 -Pn cbr -Pi 29 -Pf 0 -Po 0 
s -t 0.593920000 -Hs 0 -Hd 5 -Ni 0 -Nx 0.00 -Ny 50.00 -Nz 0.00 -Ne -1.000000 -Nl RTR -Nw --- -Ma 0 -Md 0 -Ms 0 -Mt 0 -Is 0.0 -Id 5.0 -It cbr -Il 532 -If 0 -Ii 29 -Iv 30 -Pn cbr -Pi 29 -Pf 0 -Po 0 
r -t 0.600017501 -Hs 5 -Hd 5 -Ni 5 -Nx 4.81 -Ny 200.00 -Nz 0.00 -Ne -1.000000 -Nl AGT -Nw --- -Ma 13a -Md 5 -Ms 0 -Mt 800 -Is 0.0 -Id 5.0 -It cbr -Il 532 -If 0 -Ii 29 -Iv 30 -Pn cbr -Pi 29 -Pf 1 -Po 0 
s -t 0.614400000 -Hs 0 -Hd -2 -Ni 0 -Nx 0.00 -Ny 50.00 -Nz 0.00 -Ne -1.000000 -Nl AGT -Nw --- -Ma 0 -Md 0 -Ms 0 -Mt 0 -Is 0.0 -Id 5.0 -It cbr -Il 512 -If 0 -Ii 30 -Iv 32 -Pn cbr -Pi 30 -Pf 0 -Po 0 
r -t 0.614400000 -Hs 0 -Hd -2 -Ni 0 -Nx 0.00 -Ny 50.00 -Nz 0.00 -Ne -1.000000 -Nl RTR -Nw --- -Ma 0 -Md 0 -Ms 0 -Mt 0 -Is 0.0 -Id 5.0 -It cbr -Il 512 -If 0 -Ii 30 -Iv 32 -Pn cbr -Pi 30 -Pf 0 -Po 0 
s -t 0.614400000 -Hs 0 -Hd 5 -Ni 0 -Nx 0.00 -Ny 50.00 -Nz 0.00 -Ne -1.000000 -Nl RTR -Nw --- -Ma 0 -Md 0 -Ms 0 -Mt 0 -Is 0.0 -Id 5.0 -It cbr -Il 532 -If 0 -Ii 30 -Iv 30 -Pn cbr -Pi 30 -Pf 0 -Po 0 
r -t 0.619957501 -Hs 5 -Hd 5 -Ni 5 -Nx 4.97 -Ny 200.00 -Nz 0.00 -Ne -1.000000 -Nl AGT -Nw --- -Ma 13a -Md 5 -Ms 0 -Mt 800 -Is 0.0 -Id 5.0 -It cbr -Il 532 -If 0 -Ii 30 -Iv 30 -Pn cbr -Pi 30 -Pf 1 -Po 0 
s -t 0.634880000 -Hs 0 -Hd -2 -Ni 0 -Nx 0.00 -Ny 50.00 -Nz 0.00 -Ne -1.000000 -Nl AGT -Nw --- -Ma 0 -Md 0 -Ms 0 -Mt 0 -Is 0.0 -Id 5.0 -It cbr -Il 512 -If 0 -Ii 31 -Iv 32 -Pn cbr -Pi 31 -Pf 0 -Po 0 
r -t 0.634880000 -Hs 0 -Hd -2 -Ni 0 -Nx 0.00 -Ny 50.00 -Nz 0.00 -Ne -1.000000 -Nl RTR -Nw --- -Ma 0 -Md 0 -Ms 0 -Mt 0 -Is 0.0 -Id 5.0 -It cbr -Il 512 -If 0 -Ii 31 -Iv 32 -Pn cbr -Pi 31 -Pf 0 -Po 0 
s -t 0.634880000 -Hs 0 -Hd 5 -Ni 0 -Nx 0.00 -Ny 50.00 -Nz 0.00 -Ne -1.000000 -Nl RTR -Nw --- -Ma 0 -Md 0 -Ms 0 -Mt 0 -Is 0.0 -Id 5.0 -It cbr -Il 532 -If 0 -Ii 31 -Iv 30 -Pn cbr -Pi 31 -Pf 0 -Po 0 
r -t 0.640497501 -Hs 5 -Hd 5 -Ni 5 -Nx 5.13 -Ny 200.00 -Nz 0.00 -Ne -1.000000 -Nl AGT -Nw --- -Ma 13a -Md 5 -Ms 0 -Mt 800 -Is 0.0 -Id 5.0 -It cbr -Il 532 -If 0 -Ii 31 -Iv 30 -Pn cbr -Pi 31 -Pf 1 -Po 0 
s -t 0.655360000 -Hs 0 -Hd -2 -Ni 0 -Nx 0.00 -Ny 50.00 -Nz 0.00 -Ne -1.000000 -Nl AGT -Nw --- -Ma 0 -Md 0 -Ms 0 -Mt 0 -Is 0.0 -Id 5.0 -It cbr -Il 512 -If 0 -Ii 32 -Iv 32 -Pn cbr -Pi 32 -Pf 0 -Po 0 