n -t * -s 0  -x 0 -y 50 -Z 0 -z 10  -v circle -c black
n -t * -s 1  -x 200 -y 50 -Z 0 -z 10  -v circle -c black
n -t * -s 2  -x 400 -y 50 -Z 0 -z 10  -v circle -c black
n -t * -s 3  -x 600 -y 50 -Z 0 -z 10  -v circle -c black
n -t * -s 4  -x 800 -y 50 -Z 0 -z 10  -v circle -c black
n -t * -s 5  -x 0 -y 200 -Z 0 -z 20  -v circle -c black
V -t * -v 1.0a5 -a 0
W -t * -x 801 -y 300
A -t * -n 1 -p 0 -o 0x7fffffff -c 30 -a 1
A -t * -h 1 -m 1073741823 -s 0
n -t 0.000000 -s 5 -x 0.000000 -y 200.000000 -U 8.010000 -V 0.000000 -T 99.875156
+ -t 0.000000000 -s 0 -d -1 -p cbr -e 512 -c 2 -a 0 -i 0 -k AGT 
- -t 0.000000000 -s 0 -d -1 -p cbr -e 512 -c 2 -a 0 -i 0 -k AGT
h -t 0.000000000 -s 0 -d -1 -p cbr -e 512 -c 2 -a 0 -i 0 -k AGT
n -t 0 -s 5 -S COLOR -c blue -o blue -i blue -I blue
+ -t 0.003129618 -s 0 -d -1 -p DSR -e 32 -c 2 -a 0 -i 1 -k RTR 
- -t 0.003129618 -s 0 -d -1 -p DSR -e 32 -c 2 -a 0 -i 1 -k RTR
h -t 0.003129618 -s 0 -d -1 -p DSR -e 32 -c 2 -a 0 -i 1 -k RTR
+ -t 0.010538769 -s 5 -d 0 -p DSR -e 44 -c 2 -a 0 -i 2 -k RTR 
- -t 0.010538769 -s 5 -d 0 -p DSR -e 44 -c 2 -a 0 -i 2 -k RTR
h -t 0.010538769 -s 5 -d 0 -p DSR -e 44 -c 2 -a 0 -i 2 -k RTR
+ -t 0.015085269 -s 0 -d 5 -p cbr -e 548 -c 2 -a 0 -i 0 -k RTR 
- -t 0.015085269 -s 0 -d 5 -p cbr -e 548 -c 2 -a 0 -i 0 -k RTR
h -t 0.015085269 -s 0 -d 5 -p cbr -e 548 -c 2 -a 0 -i 0 -k RTR
+ -t 0.020480000 -s 0 -d -1 -p cbr -e 512 -c 2 -a 0 -i 3 -k AGT 
- -t 0.020480000 -s 0 -d -1 -p cbr -e 512 -c 2 -a 0 -i 3 -k AGT
h -t 0.020480000 -s 0 -d -1 -p cbr -e 512 -c 2 -a 0 -i 3 -k AGT
+ -t 0.020480000 -s 0 -d 5 -p cbr -e 548 -c 2 -a 0 -i 3 -k RTR 
- -t 0.020480000 -s 0 -d 5 -p cbr -e 548 -c 2 -a 0 -i 3 -k RTR
h -t 0.020480000 -s 0 -d 5 -p cbr -e 548 -c 2 -a 0 -i 3 -k RTR
r -t 0.021314769 -s 5 -d 5 -p cbr -e 512 -c 2 -a 0 -i 0 -k AGT
r -t 0.027564769 -s 5 -d 5 -p cbr -e 512 -c 2 -a 0 -i 3 -k AGT
+ -t 0.040960000 -s 0 -d -1 -p cbr -e 512 -c 2 -a 0 -i 4 -k AGT 
- -t 0.040960000 -s 0 -d -1 -p cbr -e 512 -c 2 -a 0 -i 4 -k AGT
h -t 0.040960000 -s 0 -d -1 -p cbr -e 512 -c 2 -a 0 -i 4 -k AGT
+ -t 0.040960000 -s 0 -d 5 -p cbr -e 548 -c 2 -a 0 -i 4 -k RTR 
- -t 0.040960000 -s 0 -d 5 -p cbr -e 548 -c 2 -a 0 -i 4 -k RTR
h -t 0.040960000 -s 0 -d 5 -p cbr -e 548 -c 2 -a 0 -i 4 -k RTR
r -t 0.046905500 -s 5 -d 5 -p cbr -e 512 -c 2 -a 0 -i 4 -k AGT
+ -t 0.061440000 -s 0 -d -1 -p cbr -e 512 -c 2 -a 0 -i 5 -k AGT 
- -t 0.061440000 -s 0 -d -1 -p cbr -e 512 -c 2 -a 0 -i 5 -k AGT
h -t 0.061440000 -s 0 -d -1 -p cbr -e 512 -c 2 -a 0 -i 5 -k AGT
+ -t 0.061440000 -s 0 -d 5 -p cbr -e 532 -c 2 -a 0 -i 5 -k RTR 
- -t 0.061440000 -s 0 -d 5 -p cbr -e 532 -c 2 -a 0 -i 5 -k RTR
h -t 0.061440000 -s 0 -d 5 -p cbr -e 532 -c 2 -a 0 -i 5 -k RTR
r -t 0.067377500 -s 5 -d 5 -p cbr -e 512 -c 2 -a 0 -i 5 -k AGT
+ -t 0.081920000 -s 0 -d -1 -p cbr -e 512 -c 2 -a 0 -i 6 -k AGT 
- -t 0.081920000 -s 0 -d -1 -p cbr -e 512 -c 2 -a 0 -i 6 -k AGT
h -t 0.081920000 -s 0 -d -1 -p cbr -e 512 -c 2 -a 0 -i 6 -k AGT
+ -t 0.081920000 -s 0 -d 5 -p cbr -e 532 -c 2 -a 0 -i 6 -k RTR 
- -t 0.081920000 -s 0 -d 5 -p cbr -e 532 -c 2 -a 0 -i 6 -k RTR
h -t 0.081920000 -s 0 -d 5 -p cbr -e 532 -c 2 -a 0 -i 6 -k RTR
r -t 0.087777500 -s 5 -d 5 -p cbr -e 512 -c 2 -a 0 -i 6 -k AGT
+ -t 0.102400000 -s 0 -d -1 -p cbr -e 512 -c 2 -a 0 -i 7 -k AGT 
- -t 0.102400000 -s 0 -d -1 -p cbr -e 512 -c 2 -a 0 -i 7 -k AGT
h -t 0.102400000 -s 0 -d -1 -p cbr -e 512 -c 2 -a 0 -i 7 -k AGT
+ -t 0.102400000 -s 0 -d 5 -p cbr -e 532 -c 2 -a 0 -i 7 -k RTR 
- -t 0.102400000 -s 0 -d 5 -p cbr -e 532 -c 2 -a 0 -i 7 -k RTR
h -t 0.102400000 -s 0 -d 5 -p cbr -e 532 -c 2 -a 0 -i 7 -k RTR
r -t 0.107977500 -s 5 -d 5 -p cbr -e 512 -c 2 -a 0 -i 7 -k AGT
+ -t 0.122880000 -s 0 -d -1 -p cbr -e 512 -c 2 -a 0 -i 8 -k AGT 
- -t 0.122880000 -s 0 -d -1 -p cbr -e 512 -c 2 -a 0 -i 8 -k AGT
h -t 0.122880000 -s 0 -d -1 -p cbr -e 512 -c 2 -a 0 -i 8 -k AGT
+ -t 0.122880000 -s 0 -d 5 -p cbr -e 532 -c 2 -a 0 -i 8 -k RTR 
- -t 0.122880000 -s 0 -d 5 -p cbr -e 532 -c 2 -a 0 -i 8 -k RTR
h -t 0.122880000 -s 0 -d 5 -p cbr -e 532 -c 2 -a 0 -i 8 -k RTR
r -t 0.128597500 -s 5 -d 5 -p cbr -e 512 -c 2 -a 0 -i 8 -k AGT
+ -t 0.143360000 -s 0 -d -1 -p cbr -e 512 -c 2 -a 0 -i 9 -k AGT 
- -t 0.143360000 -s 0 -d -1 -p cbr -e 512 -c 2 -a 0 -i 9 -k AGT
h -t 0.143360000 -s 0 -d -1 -p cbr -e 512 -c 2 -a 0 -i 9 -k AGT
+ -t 0.143360000 -s 0 -d 5 -p cbr -e 532 -c 2 -a 0 -i 9 -k RTR 
- -t 0.143360000 -s 0 -d 5 -p cbr -e 532 -c 2 -a 0 -i 9 -k RTR
h -t 0.143360000 -s 0 -d 5 -p cbr -e 532 -c 2 -a 0 -i 9 -k RTR
r -t 0.148977500 -s 5 -d 5 -p cbr -e 512 -c 2 -a 0 -i 9 -k AGT
+ -t 0.163840000 -s 0 -d -1 -p cbr -e 512 -c 2 -a 0 -i 10 -k AGT 
- -t 0.163840000 -s 0 -d -1 -p cbr -e 512 -c 2 -a 0 -i 10 -k AGT
h -t 0.163840000 -s 0 -d -1 -p cbr -e 512 -c 2 -a 0 -i 10 -k AGT
+ -t 0.163840000 -s 0 -d 5 -p cbr -e 532 -c 2 -a 0 -i 10 -k RTR 
- -t 0.163840000 -s 0 -d 5 -p cbr -e 532 -c 2 -a 0 -i 10 -k RTR
h -t 0.163840000 -s 0 -d 5 -p cbr -e 532 -c 2 -a 0 -i 10 -k RTR
r -t 0.169617500 -s 5 -d 5 -p cbr -e 512 -c 2 -a 0 -i 10 -k AGT
+ -t 0.184320000 -s 0 -d -1 -p cbr -e 512 -c 2 -a 0 -i 11 -k AGT 
- -t 0.184320000 -s 0 -d -1 -p cbr -e 512 -c 2 -a 0 -i 11 -k AGT
h -t 0.184320000 -s 0 -d -1 -p cbr -e 512 -c 2 -a 0 -i 11 -k AGT
+ -t 0.184320000 -s 0 -d 5 -p cbr -e 532 -c 2 -a 0 -i 11 -k RTR 
- -t 0.184320000 -s 0 -d 5 -p cbr -e 532 -c 2 -a 0 -i 11 -k RTR
h -t 0.184320000 -s 0 -d 5 -p cbr -e 532 -c 2 -a 0 -i 11 -k RTR
r -t 0.189977500 -s 5 -d 5 -p cbr -e 512 -c 2 -a 0 -i 11 -k AGT
+ -t 0.204800000 -s 0 -d -1 -p cbr -e 512 -c 2 -a 0 -i 12 -k AGT 
- -t 0.204800000 -s 0 -d -1 -p cbr -e 512 -c 2 -a 0 -i 12 -k AGT
h -t 0.204800000 -s 0 -d -1 -p cbr -e 512 -c 2 -a 0 -i 12 -k AGT
+ -t 0.204800000 -s 0 -d 5 -p cbr -e 532 -c 2 -a 0 -i 12 -k RTR 
- -t 0.204800000 -s 0 -d 5 -p cbr -e 532 -c 2 -a 0 -i 12 -k RTR
h -t 0.204800000 -s 0 -d 5 -p cbr -e 532 -c 2 -a 0 -i 12 -k RTR
r -t 0.210297500 -s 5 -d 5 -p cbr -e 512 -c 2 -a 0 -i 12 -k AGT
+ -t 0.225280000 -s 0 -d -1 -p cbr -e 512 -c 2 -a 0 -i 13 -k AGT 
- -t 0.225280000 -s 0 -d -1 -p cbr -e 512 -c 2 -a 0 -i 13 -k AGT
h -t 0.225280000 -s 0 -d -1 -p cbr -e 512 -c 2 -a 0 -i 13 -k AGT
+ -t 0.225280000 -s 0 -d 5 -p cbr -e 532 -c 2 -a 0 -i 13 -k RTR 
- -t 0.225280000 -s 0 -d 5 -p cbr -e 532 -c 2 -a 0 -i 13 -k RTR
h -t 0.225280000 -s 0 -d 5 -p cbr -e 532 -c 2 -a 0 -i 13 -k RTR
r -t 0.231257500 -s 5 -d 5 -p cbr -e 512 -c 2 -a 0 -i 13 -k AGT
+ -t 0.245760000 -s 0 -d -1 -p cbr -e 512 -c 2 -a 0 -i 14 -k AGT 
- -t 0.245760000 -s 0 -d -1 -p cbr -e 512 -c 2 -a 0 -i 14 -k AGT
h -t 0.245760000 -s 0 -d -1 -p cbr -e 512 -c 2 -a 0 -i 14 -k AGT
+ -t 0.245760000 -s 0 -d 5 -p cbr -e 532 -c 2 -a 0 -i 14 -k RTR 
- -t 0.245760000 -s 0 -d 5 -p cbr -e 532 -c 2 -a 0 -i 14 -k RTR
h -t 0.245760000 -s 0 -d 5 -p cbr -e 532 -c 2 -a 0 -i 14 -k RTR
r -t 0.251717500 -s 5 -d 5 -p cbr -e 512 -c 2 -a 0 -i 14 -k AGT
+ -t 0.266240000 -s 0 -d -1 -p cbr -e 512 -c 2 -a 0 -i 15 -k AGT 
- -t 0.266240000 -s 0 -d -1 -p cbr -e 512 -c 2 -a 0 -i 15 -k AGT
h -t 0.266240000 -s 0 -d -1 -p cbr -e 512 -c 2 -a 0 -i 15 -k AGT
+ -t 0.266240000 -s 0 -d 5 -p cbr -e 532 -c 2 -a 0 -i 15 -k RTR 
- -t 0.266240000 -s 0 -d 5 -p cbr -e 532 -c 2 -a 0 -i 15 -k RTR
h -t 0.266240000 -s 0 -d 5 -p cbr -e 532 -c 2 -a 0 -i 15 -k RTR
r -t 0.271937500 -s 5 -d 5 -p cbr -e 512 -c 2 -a 0 -i 15 -k AGT
+ -t 0.286720000 -s 0 -d -1 -p cbr -e 512 -c 2 -a 0 -i 16 -k AGT 
- -t 0.286720000 -s 0 -d -1 -p cbr -e 512 -c 2 -a 0 -i 16 -k AGT
h -t 0.286720000 -s 0 -d -1 -p cbr -e 512 -c 2 -a 0 -i 16 -k AGT
+ -t 0.286720000 -s 0 -d 5 -p cbr -e 532 -c 2 -a 0 -i 16 -k RTR 
- -t 0.286720000 -s 0 -d 5 -p cbr -e 532 -c 2 -a 0 -i 16 -k RTR
h -t 0.286720000 -s 0 -d 5 -p cbr -e 532 -c 2 -a 0 -i 16 -k RTR
r -t 0.292817500 -s 5 -d 5 -p cbr -e 512 -c 2 -a 0 -i 16 -k AGT
+ -t 0.307200000 -s 0 -d -1 -p cbr -e 512 -c 2 -a 0 -i 17 -k AGT 
- -t 0.307200000 -s 0 -d -1 -p cbr -e 512 -c 2 -a 0 -i 17 -k AGT
h -t 0.307200000 -s 0 -d -1 -p cbr -e 512 -c 2 -a 0 -i 17 -k AGT
+ -t 0.307200000 -s 0 -d 5 -p cbr -e 532 -c 2 -a 0 -i 17 -k RTR 
- -t 0.307200000 -s 0 -d 5 -p cbr -e 532 -c 2 -a 0 -i 17 -k RTR
h -t 0.307200000 -s 0 -d 5 -p cbr -e 532 -c 2 -a 0 -i 17 -k RTR
r -t 0.313137500 -s 5 -d 5 -p cbr -e 512 -c 2 -a 0 -i 17 -k AGT
+ -t 0.327680000 -s 0 -d -1 -p cbr -e 512 -c 2 -a 0 -i 18 -k AGT 
- -t 0.327680000 -s 0 -d -1 -p cbr -e 512 -c 2 -a 0 -i 18 -k AGT
h -t 0.327680000 -s 0 -d -1 -p cbr -e 512 -c 2 -a 0 -i 18 -k AGT
+ -t 0.327680000 -s 0 -d 5 -p cbr -e 532 -c 2 -a 0 -i 18 -k RTR 
- -t 0.327680000 -s 0 -d 5 -p cbr -e 532 -c 2 -a 0 -i 18 -k RTR
h -t 0.327680000 -s 0 -d 5 -p cbr -e 532 -c 2 -a 0 -i 18 -k RTR
r -t 0.333477500 -s 5 -d 5 -p cbr -e 512 -c 2 -a 0 -i 18 -k AGT
+ -t 0.348160000 -s 0 -d -1 -p cbr -e 512 -c 2 -a 0 -i 19 -k AGT 
- -t 0.348160000 -s 0 -d -1 -p cbr -e 512 -c 2 -a 0 -i 19 -k AGT
h -t 0.348160000 -s 0 -d -1 -p cbr -e 512 -c 2 -a 0 -i 19 -k AGT
+ -t 0.348160000 -s 0 -d 5 -p cbr -e 532 -c 2 -a 0 -i 19 -k RTR 
- -t 0.348160000 -s 0 -d 5 -p cbr -e 532 -c 2 -a 0 -i 19 -k RTR
h -t 0.348160000 -s 0 -d 5 -p cbr -e 532 -c 2 -a 0 -i 19 -k RTR
r -t 0.353877500 -s 5 -d 5 -p cbr -e 512 -c 2 -a 0 -i 19 -k AGT
+ -t 0.368640000 -s 0 -d -1 -p cbr -e 512 -c 2 -a 0 -i 20 -k AGT 
- -t 0.368640000 -s 0 -d -1 -p cbr -e 512 -c 2 -a 0 -i 20 -k AGT
h -t 0.368640000 -s 0 -d -1 -p cbr -e 512 -c 2 -a 0 -i 20 -k AGT
+ -t 0.368640000 -s 0 -d 5 -p cbr -e 532 -c 2 -a 0 -i 20 -k RTR 
- -t 0.368640000 -s 0 -d 5 -p cbr -e 532 -c 2 -a 0 -i 20 -k RTR
h -t 0.368640000 -s 0 -d 5 -p cbr -e 532 -c 2 -a 0 -i 20 -k RTR
r -t 0.374297500 -s 5 -d 5 -p cbr -e 512 -c 2 -a 0 -i 20 -k AGT
+ -t 0.389120000 -s 0 -d -1 -p cbr -e 512 -c 2 -a 0 -i 21 -k AGT 
- -t 0.389120000 -s 0 -d -1 -p cbr -e 512 -c 2 -a 0 -i 21 -k AGT
h -t 0.389120000 -s 0 -d -1 -p cbr -e 512 -c 2 -a 0 -i 21 -k AGT
+ -t 0.389120000 -s 0 -d 5 -p cbr -e 532 -c 2 -a 0 -i 21 -k RTR 
- -t 0.389120000 -s 0 -d 5 -p cbr -e 532 -c 2 -a 0 -i 21 -k RTR
h -t 0.389120000 -s 0 -d 5 -p cbr -e 532 -c 2 -a 0 -i 21 -k RTR
r -t 0.394977500 -s 5 -d 5 -p cbr -e 512 -c 2 -a 0 -i 21 -k AGT
+ -t 0.409600000 -s 0 -d -1 -p cbr -e 512 -c 2 -a 0 -i 22 -k AGT 
- -t 0.409600000 -s 0 -d -1 -p cbr -e 512 -c 2 -a 0 -i 22 -k AGT
h -t 0.409600000 -s 0 -d -1 -p cbr -e 512 -c 2 -a 0 -i 22 -k AGT
+ -t 0.409600000 -s 0 -d 5 -p cbr -e 532 -c 2 -a 0 -i 22 -k RTR 
- -t 0.409600000 -s 0 -d 5 -p cbr -e 532 -c 2 -a 0 -i 22 -k RTR
h -t 0.409600000 -s 0 -d 5 -p cbr -e 532 -c 2 -a 0 -i 22 -k RTR
r -t 0.415357500 -s 5 -d 5 -p cbr -e 512 -c 2 -a 0 -i 22 -k AGT
+ -t 0.430080000 -s 0 -d -1 -p cbr -e 512 -c 2 -a 0 -i 23 -k AGT 
- -t 0.430080000 -s 0 -d -1 -p cbr -e 512 -c 2 -a 0 -i 23 -k AGT
h -t 0.430080000 -s 0 -d -1 -p cbr -e 512 -c 2 -a 0 -i 23 -k AGT
+ -t 0.430080000 -s 0 -d 5 -p cbr -e 532 -c 2 -a 0 -i 23 -k RTR 
- -t 0.430080000 -s 0 -d 5 -p cbr -e 532 -c 2 -a 0 -i 23 -k RTR
h -t 0.430080000 -s 0 -d 5 -p cbr -e 532 -c 2 -a 0 -i 23 -k RTR
r -t 0.435637500 -s 5 -d 5 -p cbr -e 512 -c 2 -a 0 -i 23 -k AGT
+ -t 0.450560000 -s 0 -d -1 -p cbr -e 512 -c 2 -a 0 -i 24 -k AGT 
- -t 0.450560000 -s 0 -d -1 -p cbr -e 512 -c 2 -a 0 -i 24 -k AGT
h -t 0.450560000 -s 0 -d -1 -p cbr -e 512 -c 2 -a 0 -i 24 -k AGT
+ -t 0.450560000 -s 0 -d 5 -p cbr -e 532 -c 2 -a 0 -i 24 -k RTR 
- -t 0.450560000 -s 0 -d 5 -p cbr -e 532 -c 2 -a 0 -i 24 -k RTR
h -t 0.450560000 -s 0 -d 5 -p cbr -e 532 -c 2 -a 0 -i 24 -k RTR
r -t 0.456077500 -s 5 -d 5 -p cbr -e 512 -c 2 -a 0 -i 24 -k AGT
+ -t 0.471040000 -s 0 -d -1 -p cbr -e 512 -c 2 -a 0 -i 25 -k AGT 
- -t 0.471040000 -s 0 -d -1 -p cbr -e 512 -c 2 -a 0 -i 25 -k AGT
h -t 0.471040000 -s 0 -d -1 -p cbr -e 512 -c 2 -a 0 -i 25 -k AGT
+ -t 0.471040000 -s 0 -d 5 -p cbr -e 532 -c 2 -a 0 -i 25 -k RTR 
- -t 0.471040000 -s 0 -d 5 -p cbr -e 532 -c 2 -a 0 -i 25 -k RTR
h -t 0.471040000 -s 0 -d 5 -p cbr -e 532 -c 2 -a 0 -i 25 -k RTR
r -t 0.476917500 -s 5 -d 5 -p cbr -e 512 -c 2 -a 0 -i 25 -k AGT
+ -t 0.491520000 -s 0 -d -1 -p cbr -e 512 -c 2 -a 0 -i 26 -k AGT 
- -t 0.491520000 -s 0 -d -1 -p cbr -e 512 -c 2 -a 0 -i 26 -k AGT
h -t 0.491520000 -s 0 -d -1 -p cbr -e 512 -c 2 -a 0 -i 26 -k AGT
+ -t 0.491520000 -s 0 -d 5 -p cbr -e 532 -c 2 -a 0 -i 26 -k RTR 
- -t 0.491520000 -s 0 -d 5 -p cbr -e 532 -c 2 -a 0 -i 26 -k RTR
h -t 0.491520000 -s 0 -d 5 -p cbr -e 532 -c 2 -a 0 -i 26 -k RTR
r -t 0.497197501 -s 5 -d 5 -p cbr -e 512 -c 2 -a 0 -i 26 -k AGT
+ -t 0.512000000 -s 0 -d -1 -p cbr -e 512 -c 2 -a 0 -i 27 -k AGT 
- -t 0.512000000 -s 0 -d -1 -p cbr -e 512 -c 2 -a 0 -i 27 -k AGT
h -t 0.512000000 -s 0 -d -1 -p cbr -e 512 -c 2 -a 0 -i 27 -k AGT
+ -t 0.512000000 -s 0 -d 5 -p cbr -e 532 -c 2 -a 0 -i 27 -k RTR 
- -t 0.512000000 -s 0 -d 5 -p cbr -e 532 -c 2 -a 0 -i 27 -k RTR
h -t 0.512000000 -s 0 -d 5 -p cbr -e 532 -c 2 -a 0 -i 27 -k RTR
r -t 0.517497501 -s 5 -d 5 -p cbr -e 512 -c 2 -a 0 -i 27 -k AGT
+ -t 0.532480000 -s 0 -d -1 -p cbr -e 512 -c 2 -a 0 -i 28 -k AGT 
- -t 0.532480000 -s 0 -d -1 -p cbr -e 512 -c 2 -a 0 -i 28 -k AGT
h -t 0.532480000 -s 0 -d -1 -p cbr -e 512 -c 2 -a 0 -i 28 -k AGT
+ -t 0.532480000 -s 0 -d 5 -p cbr -e 532 -c 2 -a 0 -i 28 -k RTR 
- -t 0.532480000 -s 0 -d 5 -p cbr -e 532 -c 2 -a 0 -i 28 -k RTR
h -t 0.532480000 -s 0 -d 5 -p cbr -e 532 -c 2 -a 0 -i 28 -k RTR
r -t 0.538517501 -s 5 -d 5 -p cbr -e 512 -c 2 -a 0 -i 28 -k AGT
+ -t 0.552960000 -s 0 -d -1 -p cbr -e 512 -c 2 -a 0 -i 29 -k AGT 
- -t 0.552960000 -s 0 -d -1 -p cbr -e 512 -c 2 -a 0 -i 29 -k AGT
h -t 0.552960000 -s 0 -d -1 -p cbr -e 512 -c 2 -a 0 -i 29 -k AGT
+ -t 0.552960000 -s 0 -d 5 -p cbr -e 532 -c 2 -a 0 -i 29 -k RTR 
- -t 0.552960000 -s 0 -d 5 -p cbr -e 532 -c 2 -a 0 -i 29 -k RTR
h -t 0.552960000 -s 0 -d 5 -p cbr -e 532 -c 2 -a 0 -i 29 -k RTR
r -t 0.558597501 -s 5 -d 5 -p cbr -e 512 -c 2 -a 0 -i 29 -k AGT
+ -t 0.573440000 -s 0 -d -1 -p cbr -e 512 -c 2 -a 0 -i 30 -k AGT 
- -t 0.573440000 -s 0 -d -1 -p cbr -e 512 -c 2 -a 0 -i 30 -k AGT
h -t 0.573440000 -s 0 -d -1 -p cbr -e 512 -c 2 -a 0 -i 30 -k AGT
+ -t 0.573440000 -s 0 -d 5 -p cbr -e 532 -c 2 -a 0 -i 30 -k RTR 
- -t 0.573440000 -s 0 -d 5 -p cbr -e 532 -c 2 -a 0 -i 30 -k RTR
h -t 0.573440000 -s 0 -d 5 -p cbr -e 532 -c 2 -a 0 -i 30 -k RTR
r -t 0.578937501 -s 5 -d 5 -p cbr -e 512 -c 2 -a 0 -i 30 -k AGT
+ -t 0.593920000 -s 0 -d -1 -p cbr -e 512 -c 2 -a 0 -i 31 -k AGT 
- -t 0.593920000 -s 0 -d -1 -p cbr -e 512 -c 2 -a 0 -i 31 -k AGT
h -t 0.593920000 -s 0 -d -1 -p cbr -e 512 -c 2 -a 0 -i 31 -k AGT
+ -t 0.593920000 -s 0 -d 5 -p cbr -e 532 -c 2 -a 0 -i 31 -k RTR 
- -t 0.593920000 -s 0 -d 5 -p cbr -e 532 -c 2 -a 0 -i 31 -k RTR
h -t 0.593920000 -s 0 -d 5 -p cbr -e 532 -c 2 -a 0 -i 31 -k RTR
r -t 0.599657501 -s 5 -d 5 -p cbr -e 512 -c 2 -a 0 -i 31 -k AGT
+ -t 0.614400000 -s 0 -d -1 -p cbr -e 512 -c 2 -a 0 -i 32 -k AGT 
- -t 0.614400000 -s 0 -d -1 -p cbr -e 512 -c 2 -a 0 -i 32 -k AGT
h -t 0.614400000 -s 0 -d -1 -p cbr -e 512 -c 2 -a 0 -i 32 -k AGT
+ -t 0.614400000 -s 0 -d 5 -p cbr -e 532 -c 2 -a 0 -i 32 -k RTR 
- -t 0.614400000 -s 0 -d 5 -p cbr -e 532 -c 2 -a 0 -i 32 -k RTR
h -t 0.614400000 -s 0 -d 5 -p cbr -e 532 -c 2 -a 0 -i 32 -k RTR
r -t 0.620397501 -s 5 -d 5 -p cbr -e 512 -c 2 -a 0 -i 32 -k AGT
+ -t 0.634880000 -s 0 -d -1 -p cbr -e 512 -c 2 -a 0 -i 33 -k AGT 
- -t 0.634880000 -s 0 -d -1 -p cbr -e 512 -c 2 -a 0 -i 33 -k AGT
h -t 0.634880000 -s 0 -d -1 -p cbr -e 512 -c 2 -a 0 -i 33 -k AGT
+ -t 0.634880000 -s 0 -d 5 -p cbr -e 532 -c 2 -a 0 -i 33 -k RTR 
- -t 0.634880000 -s 0 -d 5 -p cbr -e 532 -c 2 -a 0 -i 33 -k RTR
h -t 0.634880000 -s 0 -d 5 -p cbr -e 532 -c 2 -a 0 -i 33 -k RTR
r -t 0.640917501 -s 5 -d 5 -p cbr -e 512 -c 2 -a 0 -i 33 -k AGT
+ -t 0.655360000 -s 0 -d -1 -p cbr -e 512 -c 2 -a 0 -i 34 -k AGT 
- -t 0.655360000 -s 0 -d -1 -p cbr -e 512 -c 2 -a 0 -i 34 -k AGT
h -t 0.655360000 -s 0 -d -1 -p cbr -e 512 -c 2 -a 0 -i 34 -k AGT
+ -t 0.655360000 -s 0 -d 5 -p cbr -e 532 -c 2 -a 0 -i 34 -k RTR 
- -t 0.655360000 -s 0 -d 5 -p cbr -e 532 -c 2 -a 0 -i 34 -k RTR
h -t 0.655360000 -s 0 -d 5 -p cbr -e 532 -c 2 -a 0 -i 34 -k RTR
r -t 0.661417501 -s 5 -d 5 -p cbr -e 512 -c 2 -a 0 -i 34 -k AGT
+ -t 0.675840000 -s 0 -d -1 -p cbr -e 512 -c 2 -a 0 -i 35 -k AGT 
- -t 0.675840000 -s 0 -d -1 -p cbr -e 512 -c 2 -a 0 -i 35 -k AGT
h -t 0.675840000 -s 0 -d -1 -p cbr -e 512 -c 2 -a 0 -i 35 -k AGT
+ -t 0.675840000 -s 0 -d 5 -p cbr -e 532 -c 2 -a 0 -i 35 -k RTR 
- -t 0.675840000 -s 0 -d 5 -p cbr -e 532 -c 2 -a 0 -i 35 -k RTR
h -t 0.675840000 -s 0 -d 5 -p cbr -e 532 -c 2 -a 0 -i 35 -k RTR
r -t 0.681657501 -s 5 -d 5 -p cbr -e 512 -c 2 -a 0 -i 35 -k AGT
+ -t 0.696320000 -s 0 -d -1 -p cbr -e 512 -c 2 -a 0 -i 36 -k AGT 
- -t 0.696320000 -s 0 -d -1 -p cbr -e 512 -c 2 -a 0 -i 36 -k AGT
h -t 0.696320000 -s 0 -d -1 -p cbr -e 512 -c 2 -a 0 -i 36 -k AGT
+ -t 0.696320000 -s 0 -d 5 -p cbr -e 532 -c 2 -a 0 -i 36 -k RTR 
- -t 0.696320000 -s 0 -d 5 -p cbr -e 532 -c 2 -a 0 -i 36 -k RTR
h -t 0.696320000 -s 0 -d 5 -p cbr -e 532 -c 2 -a 0 -i 36 -k RTR
r -t 0.702417501 -s 5 -d 5 -p cbr -e 512 -c 2 -a 0 -i 36 -k AGT
+ -t 0.716800000 -s 0 -d -1 -p cbr -e 512 -c 2 -a 0 -i 37 -k AGT 
- -t 0.716800000 -s 0 -d -1 -p cbr -e 512 -c 2 -a 0 -i 37 -k AGT
h -t 0.716800000 -s 0 -d -1 -p cbr -e 512 -c 2 -a 0 -i 37 -k AGT
+ -t 0.716800000 -s 0 -d 5 -p cbr -e 532 -c 2 -a 0 -i 37 -k RTR 
- -t 0.716800000 -s 0 -d 5 -p cbr -e 532 -c 2 -a 0 -i 37 -k RTR
h -t 0.716800000 -s 0 -d 5 -p cbr -e 532 -c 2 -a 0 -i 37 -k RTR
r -t 0.722677501 -s 5 -d 5 -p cbr -e 512 -c 2 -a 0 -i 37 -k AGT
+ -t 0.737280000 -s 0 -d -1 -p cbr -e 512 -c 2 -a 0 -i 38 -k AGT 
- -t 0.737280000 -s 0 -d -1 -p cbr -e 512 -c 2 -a 0 -i 38 -k AGT
h -t 0.737280000 -s 0 -d -1 -p cbr -e 512 -c 2 -a 0 -i 38 -k AGT
+ -t 0.737280000 -s 0 -d 5 -p cbr -e 532 -c 2 -a 0 -i 38 -k RTR 
- -t 0.737280000 -s 0 -d 5 -p cbr -e 532 -c 2 -a 0 -i 38 -k RTR
h -t 0.737280000 -s 0 -d 5 -p cbr -e 532 -c 2 -a 0 -i 38 -k RTR
r -t 0.742857501 -s 5 -d 5 -p cbr -e 512 -c 2 -a 0 -i 38 -k AGT
+ -t 0.757760000 -s 0 -d -1 -p cbr -e 512 -c 2 -a 0 -i 39 -k AGT 
- -t 0.757760000 -s 0 -d -1 -p cbr -e 512 -c 2 -a 0 -i 39 -k AGT
h -t 0.757760000 -s 0 -d -1 -p cbr -e 512 -c 2 -a 0 -i 39 -k AGT
+ -t 0.757760000 -s 0 -d 5 -p cbr -e 532 -c 2 -a 0 -i 39 -k RTR 
- -t 0.757760000 -s 0 -d 5 -p cbr -e 532 -c 2 -a 0 -i 39 -k RTR
h -t 0.757760000 -s 0 -d 5 -p cbr -e 532 -c 2 -a 0 -i 39 -k RTR
r -t 0.763597501 -s 5 -d 5 -p cbr -e 512 -c 2 -a 0 -i 39 -k AGT
+ -t 0.778240000 -s 0 -d -1 -p cbr -e 512 -c 2 -a 0 -i 40 -k AGT 
- -t 0.778240000 -s 0 -d -1 -p cbr -e 512 -c 2 -a 0 -i 40 -k AGT
h -t 0.778240000 -s 0 -d -1 -p cbr -e 512 -c 2 -a 0 -i 40 -k AGT
+ -t 0.778240000 -s 0 -d 5 -p cbr -e 532 -c 2 -a 0 -i 40 -k RTR 
- -t 0.778240000 -s 0 -d 5 -p cbr -e 532 -c 2 -a 0 -i 40 -k RTR
h -t 0.778240000 -s 0 -d 5 -p cbr -e 532 -c 2 -a 0 -i 40 -k RTR
r -t 0.783837501 -s 5 -d 5 -p cbr -e 512 -c 2 -a 0 -i 40 -k AGT
+ -t 0.798720000 -s 0 -d -1 -p cbr -e 512 -c 2 -a 0 -i 41 -k AGT 
- -t 0.798720000 -s 0 -d -1 -p cbr -e 512 -c 2 -a 0 -i 41 -k AGT
h -t 0.798720000 -s 0 -d -1 -p cbr -e 512 -c 2 -a 0 -i 41 -k AGT
+ -t 0.798720000 -s 0 -d 5 -p cbr -e 532 -c 2 -a 0 -i 41 -k RTR 
- -t 0.798720000 -s 0 -d 5 -p cbr -e 532 -c 2 -a 0 -i 41 -k RTR
h -t 0.798720000 -s 0 -d 5 -p cbr -e 532 -c 2 -a 0 -i 41 -k RTR
r -t 0.804737501 -s 5 -d 5 -p cbr -e 512 -c 2 -a 0 -i 41 -k AGT
+ -t 0.819200000 -s 0 -d -1 -p cbr -e 512 -c 2 -a 0 -i 42 -k AGT 
- -t 0.819200000 -s 0 -d -1 -p cbr -e 512 -c 2 -a 0 -i 42 -k AGT
h -t 0.819200000 -s 0 -d -1 -p cbr -e 512 -c 2 -a 0 -i 42 -k AGT
+ -t 0.819200000 -s 0 -d 5 -p cbr -e 532 -c 2 -a 0 -i 42 -k RTR 
- -t 0.819200000 -s 0 -d 5 -p cbr -e 532 -c 2 -a 0 -i 42 -k RTR
h -t 0.819200000 -s 0 -d 5 -p cbr -e 532 -c 2 -a 0 -i 42 -k RTR
r -t 0.824737501 -s 5 -d 5 -p cbr -e 512 -c 2 -a 0 -i 42 -k AGT
+ -t 0.839680000 -s 0 -d -1 -p cbr -e 512 -c 2 -a 0 -i 43 -k AGT 
- -t 0.839680000 -s 0 -d -1 -p cbr -e 512 -c 2 -a 0 -i 43 -k AGT
h -t 0.839680000 -s 0 -d -1 -p cbr -e 512 -c 2 -a 0 -i 43 -k AGT
+ -t 0.839680000 -s 0 -d 5 -p cbr -e 532 -c 2 -a 0 -i 43 -k RTR 
- -t 0.839680000 -s 0 -d 5 -p cbr -e 532 -c 2 -a 0 -i 43 -k RTR
h -t 0.839680000 -s 0 -d 5 -p cbr -e 532 -c 2 -a 0 -i 43 -k RTR
r -t 0.845517502 -s 5 -d 5 -p cbr -e 512 -c 2 -a 0 -i 43 -k AGT
+ -t 0.860160000 -s 0 -d -1 -p cbr -e 512 -c 2 -a 0 -i 44 -k AGT 
- -t 0.860160000 -s 0 -d -1 -p cbr -e 512 -c 2 -a 0 -i 44 -k AGT
h -t 0.860160000 -s 0 -d -1 -p cbr -e 512 -c 2 -a 0 -i 44 -k AGT
+ -t 0.860160000 -s 0 -d 5 -p cbr -e 532 -c 2 -a 0 -i 44 -k RTR 
- -t 0.860160000 -s 0 -d 5 -p cbr -e 532 -c 2 -a 0 -i 44 -k RTR
h -t 0.860160000 -s 0 -d 5 -p cbr -e 532 -c 2 -a 0 -i 44 -k RTR
r -t 0.866117502 -s 5 -d 5 -p cbr -e 512 -c 2 -a 0 -i 44 -k AGT
+ -t 0.880640000 -s 0 -d -1 -p cbr -e 512 -c 2 -a 0 -i 45 -k AGT 
- -t 0.880640000 -s 0 -d -1 -p cbr -e 512 -c 2 -a 0 -i 45 -k AGT
h -t 0.880640000 -s 0 -d -1 -p cbr -e 512 -c 2 -a 0 -i 45 -k AGT
+ -t 0.880640000 -s 0 -d 5 -p cbr -e 532 -c 2 -a 0 -i 45 -k RTR 
- -t 0.880640000 -s 0 -d 5 -p cbr -e 532 -c 2 -a 0 -i 45 -k RTR
h -t 0.880640000 -s 0 -d 5 -p cbr -e 532 -c 2 -a 0 -i 45 -k RTR
r -t 0.886537502 -s 5 -d 5 -p cbr -e 512 -c 2 -a 0 -i 45 -k AGT
+ -t 0.901120000 -s 0 -d -1 -p cbr -e 512 -c 2 -a 0 -i 46 -k AGT 
- -t 0.901120000 -s 0 -d -1 -p cbr -e 512 -c 2 -a 0 -i 46 -k AGT
h -t 0.901120000 -s 0 -d -1 -p cbr -e 512 -c 2 -a 0 -i 46 -k AGT
+ -t 0.901120000 -s 0 -d 5 -p cbr -e 532 -c 2 -a 0 -i 46 -k RTR 
- -t 0.901120000 -s 0 -d 5 -p cbr -e 532 -c 2 -a 0 -i 46 -k RTR
h -t 0.901120000 -s 0 -d 5 -p cbr -e 532 -c 2 -a 0 -i 46 -k RTR
r -t 0.906997502 -s 5 -d 5 -p cbr -e 512 -c 2 -a 0 -i 46 -k AGT
+ -t 0.921600000 -s 0 -d -1 -p cbr -e 512 -c 2 -a 0 -i 47 -k AGT 
- -t 0.921600000 -s 0 -d -1 -p cbr -e 512 -c 2 -a 0 -i 47 -k AGT
h -t 0.921600000 -s 0 -d -1 -p cbr -e 512 -c 2 -a 0 -i 47 -k AGT
+ -t 0.921600000 -s 0 -d 5 -p cbr -e 532 -c 2 -a 0 -i 47 -k RTR 
- -t 0.921600000 -s 0 -d 5 -p cbr -e 532 -c 2 -a 0 -i 47 -k RTR
h -t 0.921600000 -s 0 -d 5 -p cbr -e 532 -c 2 -a 0 -i 47 -k RTR
r -t 0.927257502 -s 5 -d 5 -p cbr -e 512 -c 2 -a 0 -i 47 -k AGT
+ -t 0.942080000 -s 0 -d -1 -p cbr -e 512 -c 2 -a 0 -i 48 -k AGT 
- -t 0.942080000 -s 0 -d -1 -p cbr -e 512 -c 2 -a 0 -i 48 -k AGT
h -t 0.942080000 -s 0 -d -1 -p cbr -e 512 -c 2 -a 0 -i 48 -k AGT
+ -t 0.942080000 -s 0 -d 5 -p cbr -e 532 -c 2 -a 0 -i 48 -k RTR 
- -t 0.942080000 -s 0 -d 5 -p cbr -e 532 -c 2 -a 0 -i 48 -k RTR
h -t 0.942080000 -s 0 -d 5 -p cbr -e 532 -c 2 -a 0 -i 48 -k RTR
r -t 0.947797502 -s 5 -d 5 -p cbr -e 512 -c 2 -a 0 -i 48 -k AGT
+ -t 0.962560000 -s 0 -d -1 -p cbr -e 512 -c 2 -a 0 -i 49 -k AGT 
- -t 0.962560000 -s 0 -d -1 -p cbr -e 512 -c 2 -a 0 -i 49 -k AGT
h -t 0.962560000 -s 0 -d -1 -p cbr -e 512 -c 2 -a 0 -i 49 -k AGT
+ -t 0.962560000 -s 0 -d 5 -p cbr -e 532 -c 2 -a 0 -i 49 -k RTR 
- -t 0.962560000 -s 0 -d 5 -p cbr -e 532 -c 2 -a 0 -i 49 -k RTR
h -t 0.962560000 -s 0 -d 5 -p cbr -e 532 -c 2 -a 0 -i 49 -k RTR
r -t 0.968497502 -s 5 -d 5 -p cbr -e 512 -c 2 -a 0 -i 49 -k AGT
+ -t 0.983040000 -s 0 -d -1 -p cbr -e 512 -c 2 -a 0 -i 50 -k AGT 
- -t 0.983040000 -s 0 -d -1 -p cbr -e 512 -c 2 -a 0 -i 50 -k AGT
h -t 0.983040000 -s 0 -d -1 -p cbr -e 512 -c 2 -a 0 -i 50 -k AGT
+ -t 0.983040000 -s 0 -d 5 -p cbr -e 532 -c 2 -a 0 -i 50 -k RTR 
- -t 0.983040000 -s 0 -d 5 -p cbr -e 532 -c 2 -a 0 -i 50 -k RTR
h -t 0.983040000 -s 0 -d 5 -p cbr -e 532 -c 2 -a 0 -i 50 -k RTR
r -t 0.988817502 -s 5 -d 5 -p cbr -e 512 -c 2 -a 0 -i 50 -k AGT
+ -t 1.003520000 -s 0 -d -1 -p cbr -e 512 -c 2 -a 0 -i 51 -k AGT 
- -t 1.003520000 -s 0 -d -1 -p cbr -e 512 -c 2 -a 0 -i 51 -k AGT
h -t 1.003520000 -s 0 -d -1 -p cbr -e 512 -c 2 -a 0 -i 51 -k AGT
+ -t 1.003520000 -s 0 -d 5 -p cbr -e 532 -c 2 -a 0 -i 51 -k RTR 
- -t 1.003520000 -s 0 -d 5 -p cbr -e 532 -c 2 -a 0 -i 51 -k RTR
h -t 1.003520000 -s 0 -d 5 -p cbr -e 532 -c 2 -a 0 -i 51 -k RTR
r -t 1.009577502 -s 5 -d 5 -p cbr -e 512 -c 2 -a 0 -i 51 -k AGT
+ -t 1.024000000 -s 0 -d -1 -p cbr -e 512 -c 2 -a 0 -i 52 -k AGT 
- -t 1.024000000 -s 0 -d -1 -p cbr -e 512 -c 2 -a 0 -i 52 -k AGT
h -t 1.024000000 -s 0 -d -1 -p cbr -e 512 -c 2 -a 0 -i 52 -k AGT
+ -t 1.024000000 -s 0 -d 5 -p cbr -e 532 -c 2 -a 0 -i 52 -k RTR 
- -t 1.024000000 -s 0 -d 5 -p cbr -e 532 -c 2 -a 0 -i 52 -k RTR
h -t 1.024000000 -s 0 -d 5 -p cbr -e 532 -c 2 -a 0 -i 52 -k RTR
r -t 1.030017502 -s 5 -d 5 -p cbr -e 512 -c 2 -a 0 -i 52 -k AGT
+ -t 1.044480000 -s 0 -d -1 -p cbr -e 512 -c 2 -a 0 -i 53 -k AGT 
- -t 1.044480000 -s 0 -d -1 -p cbr -e 512 -c 2 -a 0 -i 53 -k AGT
h -t 1.044480000 -s 0 -d -1 -p cbr -e 512 -c 2 -a 0 -i 53 -k AGT
+ -t 1.044480000 -s 0 -d 5 -p cbr -e 532 -c 2 -a 0 -i 53 -k RTR 
- -t 1.044480000 -s 0 -d 5 -p cbr -e 532 -c 2 -a 0 -i 53 -k RTR
h -t 1.044480000 -s 0 -d 5 -p cbr -e 532 -c 2 -a 0 -i 53 -k RTR
r -t 1.049977502 -s 5 -d 5 -p cbr -e 512 -c 2 -a 0 -i 53 -k AGT
+ -t 1.064960000 -s 0 -d -1 -p cbr -e 512 -c 2 -a 0 -i 54 -k AGT 
- -t 1.064960000 -s 0 -d -1 -p cbr -e 512 -c 2 -a 0 -i 54 -k AGT
h -t 1.064960000 -s 0 -d -1 -p cbr -e 512 -c 2 -a 0 -i 54 -k AGT
+ -t 1.064960000 -s 0 -d 5 -p cbr -e 532 -c 2 -a 0 -i 54 -k RTR 
- -t 1.064960000 -s 0 -d 5 -p cbr -e 532 -c 2 -a 0 -i 54 -k RTR
h -t 1.064960000 -s 0 -d 5 -p cbr -e 532 -c 2 -a 0 -i 54 -k RTR
r -t 1.070637502 -s 5 -d 5 -p cbr -e 512 -c 2 -a 0 -i 54 -k AGT
+ -t 1.085440000 -s 0 -d -1 -p cbr -e 512 -c 2 -a 0 -i 55 -k AGT 
- -t 1.085440000 -s 0 -d -1 -p cbr -e 512 -c 2 -a 0 -i 55 -k AGT
h -t 1.085440000 -s 0 -d -1 -p cbr -e 512 -c 2 -a 0 -i 55 -k AGT
+ -t 1.085440000 -s 0 -d 5 -p cbr -e 532 -c 2 -a 0 -i 55 -k RTR 
- -t 1.085440000 -s 0 -d 5 -p cbr -e 532 -c 2 -a 0 -i 55 -k RTR
h -t 1.085440000 -s 0 -d 5 -p cbr -e 532 -c 2 -a 0 -i 55 -k RTR
r -t 1.091057503 -s 5 -d 5 -p cbr -e 512 -c 2 -a 0 -i 55 -k AGT
+ -t 1.105920000 -s 0 -d -1 -p cbr -e 512 -c 2 -a 0 -i 56 -k AGT 
- -t 1.105920000 -s 0 -d -1 -p cbr -e 512 -c 2 -a 0 -i 56 -k AGT
h -t 1.105920000 -s 0 -d -1 -p cbr -e 512 -c 2 -a 0 -i 56 -k AGT
+ -t 1.105920000 -s 0 -d 5 -p cbr -e 532 -c 2 -a 0 -i 56 -k RTR 
- -t 1.105920000 -s 0 -d 5 -p cbr -e 532 -c 2 -a 0 -i 56 -k RTR
h -t 1.105920000 -s 0 -d 5 -p cbr -e 532 -c 2 -a 0 -i 56 -k RTR
r -t 1.111497503 -s 5 -d 5 -p cbr -e 512 -c 2 -a 0 -i 56 -k AGT
+ -t 1.126400000 -s 0 -d -1 -p cbr -e 512 -c 2 -a 0 -i 57 -k AGT 
- -t 1.126400000 -s 0 -d -1 -p cbr -e 512 -c 2 -a 0 -i 57 -k AGT
h -t 1.126400000 -s 0 -d -1 -p cbr -e 512 -c 2 -a 0 -i 57 -k AGT
+ -t 1.126400000 -s 0 -d 5 -p cbr -e 532 -c 2 -a 0 -i 57 -k RTR 
- -t 1.126400000 -s 0 -d 5 -p cbr -e 532 -c 2 -a 0 -i 57 -k RTR
h -t 1.126400000 -s 0 -d 5 -p cbr -e 532 -c 2 -a 0 -i 57 -k RTR
r -t 1.132277503 -s 5 -d 5 -p cbr -e 512 -c 2 -a 0 -i 57 -k AGT
+ -t 1.146880000 -s 0 -d -1 -p cbr -e 512 -c 2 -a 0 -i 58 -k AGT 
- -t 1.146880000 -s 0 -d -1 -p cbr -e 512 -c 2 -a 0 -i 58 -k AGT
h -t 1.146880000 -s 0 -d -1 -p cbr -e 512 -c 2 -a 0 -i 58 -k AGT
+ -t 1.146880000 -s 0 -d 5 -p cbr -e 532 -c 2 -a 0 -i 58 -k RTR 
- -t 1.146880000 -s 0 -d 5 -p cbr -e 532 -c 2 -a 0 -i 58 -k RTR
h -t 1.146880000 -s 0 -d 5 -p cbr -e 532 -c 2 -a 0 -i 58 -k RTR
r -t 1.152917503 -s 5 -d 5 -p cbr -e 512 -c 2 -a 0 -i 58 -k AGT
+ -t 1.167360000 -s 0 -d -1 -p cbr -e 512 -c 2 -a 0 -i 59 -k AGT 
- -t 1.167360000 -s 0 -d -1 -p cbr -e 512 -c 2 -a 0 -i 59 -k AGT
h -t 1.167360000 -s 0 -d -1 -p cbr -e 512 -c 2 -a 0 -i 59 -k AGT
+ -t 1.167360000 -s 0 -d 5 -p cbr -e 532 -c 2 -a 0 -i 59 -k RTR 
- -t 1.167360000 -s 0 -d 5 -p cbr -e 532 -c 2 -a 0 -i 59 -k RTR
h -t 1.167360000 -s 0 -d 5 -p cbr -e 532 -c 2 -a 0 -i 59 -k RTR
r -t 1.172917503 -s 5 -d 5 -p cbr -e 512 -c 2 -a 0 -i 59 -k AGT
+ -t 1.187840000 -s 0 -d -1 -p cbr -e 512 -c 2 -a 0 -i 60 -k AGT 
- -t 1.187840000 -s 0 -d -1 -p cbr -e 512 -c 2 -a 0 -i 60 -k AGT
h -t 1.187840000 -s 0 -d -1 -p cbr -e 512 -c 2 -a 0 -i 60 -k AGT
+ -t 1.187840000 -s 0 -d 5 -p cbr -e 532 -c 2 -a 0 -i 60 -k RTR 
- -t 1.187840000 -s 0 -d 5 -p cbr -e 532 -c 2 -a 0 -i 60 -k RTR
h -t 1.187840000 -s 0 -d 5 -p cbr -e 532 -c 2 -a 0 -i 60 -k RTR
r -t 1.193637503 -s 5 -d 5 -p cbr -e 512 -c 2 -a 0 -i 60 -k AGT
+ -t 1.208320000 -s 0 -d -1 -p cbr -e 512 -c 2 -a 0 -i 61 -k AGT 
- -t 1.208320000 -s 0 -d -1 -p cbr -e 512 -c 2 -a 0 -i 61 -k AGT
h -t 1.208320000 -s 0 -d -1 -p cbr -e 512 -c 2 -a 0 -i 61 -k AGT
+ -t 1.208320000 -s 0 -d 5 -p cbr -e 532 -c 2 -a 0 -i 61 -k RTR 
- -t 1.208320000 -s 0 -d 5 -p cbr -e 532 -c 2 -a 0 -i 61 -k RTR
h -t 1.208320000 -s 0 -d 5 -p cbr -e 532 -c 2 -a 0 -i 61 -k RTR
r -t 1.214297503 -s 5 -d 5 -p cbr -e 512 -c 2 -a 0 -i 61 -k AGT
+ -t 1.228800000 -s 0 -d -1 -p cbr -e 512 -c 2 -a 0 -i 62 -k AGT 
- -t 1.228800000 -s 0 -d -1 -p cbr -e 512 -c 2 -a 0 -i 62 -k AGT
h -t 1.228800000 -s 0 -d -1 -p cbr -e 512 -c 2 -a 0 -i 62 -k AGT
+ -t 1.228800000 -s 0 -d 5 -p cbr -e 532 -c 2 -a 0 -i 62 -k RTR 
- -t 1.228800000 -s 0 -d 5 -p cbr -e 532 -c 2 -a 0 -i 62 -k RTR
h -t 1.228800000 -s 0 -d 5 -p cbr -e 532 -c 2 -a 0 -i 62 -k RTR
r -t 1.234537503 -s 5 -d 5 -p cbr -e 512 -c 2 -a 0 -i 62 -k AGT
+ -t 1.249280000 -s 0 -d -1 -p cbr -e 512 -c 2 -a 0 -i 63 -k AGT 
- -t 1.249280000 -s 0 -d -1 -p cbr -e 512 -c 2 -a 0 -i 63 -k AGT
h -t 1.249280000 -s 0 -d -1 -p cbr -e 512 -c 2 -a 0 -i 63 -k AGT
+ -t 1.249280000 -s 0 -d 5 -p cbr -e 532 -c 2 -a 0 -i 63 -k RTR 
- -t 1.249280000 -s 0 -d 5 -p cbr -e 532 -c 2 -a 0 -i 63 -k RTR
h -t 1.249280000 -s 0 -d 5 -p cbr -e 532 -c 2 -a 0 -i 63 -k RTR
r -t 1.255057503 -s 5 -d 5 -p cbr -e 512 -c 2 -a 0 -i 63 -k AGT
+ -t 1.269760000 -s 0 -d -1 -p cbr -e 512 -c 2 -a 0 -i 64 -k AGT 
- -t 1.269760000 -s 0 -d -1 -p cbr -e 512 -c 2 -a 0 -i 64 -k AGT
h -t 1.269760000 -s 0 -d -1 -p cbr -e 512 -c 2 -a 0 -i 64 -k AGT
+ -t 1.269760000 -s 0 -d 5 -p cbr -e 532 -c 2 -a 0 -i 64 -k RTR 
- -t 1.269760000 -s 0 -d 5 -p cbr -e 532 -c 2 -a 0 -i 64 -k RTR
h -t 1.269760000 -s 0 -d 5 -p cbr -e 532 -c 2 -a 0 -i 64 -k RTR
r -t 1.275597503 -s 5 -d 5 -p cbr -e 512 -c 2 -a 0 -i 64 -k AGT
+ -t 1.290240000 -s 0 -d -1 -p cbr -e 512 -c 2 -a 0 -i 65 -k AGT 
- -t 1.290240000 -s 0 -d -1 -p cbr -e 512 -c 2 -a 0 -i 65 -k AGT
h -t 1.290240000 -s 0 -d -1 -p cbr -e 512 -c 2 -a 0 -i 65 -k AGT
+ -t 1.290240000 -s 0 -d 5 -p cbr -e 532 -c 2 -a 0 -i 65 -k RTR 
- -t 1.290240000 -s 0 -d 5 -p cbr -e 532 -c 2 -a 0 -i 65 -k RTR
h -t 1.290240000 -s 0 -d 5 -p cbr -e 532 -c 2 -a 0 -i 65 -k RTR
r -t 1.296157504 -s 5 -d 5 -p cbr -e 512 -c 2 -a 0 -i 65 -k AGT
+ -t 1.310720000 -s 0 -d -1 -p cbr -e 512 -c 2 -a 0 -i 66 -k AGT 