n -t * -s 0  -x 0 -y 50 -Z 0 -z 10  -v circle -c black
n -t * -s 1  -x 200 -y 50 -Z 0 -z 10  -v circle -c black
n -t * -s 2  -x 400 -y 50 -Z 0 -z 10  -v circle -c black
n -t * -s 3  -x 600 -y 50 -Z 0 -z 10  -v circle -c black
n -t * -s 4  -x 800 -y 50 -Z 0 -z 10  -v circle -c black
n -t * -s 5  -x 0 -y 200 -Z 0 -z 20  -v circle -c black
V -t * -v 1.0a5 -a 0
W -t * -x 801 -y 300
A -t * -n 1 -p 0 -o 0x7fffffff -c 30 -a 1
A -t * -h 1 -m 1073741823 -s 0
n -t 0.000000 -s 5 -x 0.000000 -y 200.000000 -U 8.010000 -V 0.000000 -T 99.875156
+ -t 0.000000000 -s 0 -d -1 -p cbr -e 512 -c 2 -a 0 -i 0 -k AGT 
- -t 0.000000000 -s 0 -d -1 -p cbr -e 512 -c 2 -a 0 -i 0 -k AGT
h -t 0.000000000 -s 0 -d -1 -p cbr -e 512 -c 2 -a 0 -i 0 -k AGT
n -t 0 -s 5 -S COLOR -c blue -o blue -i blue -I blue
+ -t 0.003808772 -s 0 -d -1 -p message -e 32 -c 2 -a 0 -i 1 -k RTR 
- -t 0.003808772 -s 0 -d -1 -p message -e 32 -c 2 -a 0 -i 1 -k RTR
h -t 0.003808772 -s 0 -d -1 -p message -e 32 -c 2 -a 0 -i 1 -k RTR
r -t 0.004869272 -s 5 -d -1 -p message -e 32 -c 2 -a 0 -i 1 -k RTR
r -t 0.004869439 -s 1 -d -1 -p message -e 32 -c 2 -a 0 -i 1 -k RTR
+ -t 0.020480000 -s 0 -d -1 -p cbr -e 512 -c 2 -a 0 -i 2 -k AGT 
- -t 0.020480000 -s 0 -d -1 -p cbr -e 512 -c 2 -a 0 -i 2 -k AGT
h -t 0.020480000 -s 0 -d -1 -p cbr -e 512 -c 2 -a 0 -i 2 -k AGT
+ -t 0.031500112 -s 2 -d -1 -p message -e 32 -c 2 -a 0 -i 3 -k RTR 
- -t 0.031500112 -s 2 -d -1 -p message -e 32 -c 2 -a 0 -i 3 -k RTR
h -t 0.031500112 -s 2 -d -1 -p message -e 32 -c 2 -a 0 -i 3 -k RTR
r -t 0.032360779 -s 1 -d -1 -p message -e 32 -c 2 -a 0 -i 3 -k RTR
r -t 0.032360779 -s 3 -d -1 -p message -e 32 -c 2 -a 0 -i 3 -k RTR
+ -t 0.040960000 -s 0 -d -1 -p cbr -e 512 -c 2 -a 0 -i 4 -k AGT 
- -t 0.040960000 -s 0 -d -1 -p cbr -e 512 -c 2 -a 0 -i 4 -k AGT
h -t 0.040960000 -s 0 -d -1 -p cbr -e 512 -c 2 -a 0 -i 4 -k AGT
+ -t 0.061440000 -s 0 -d -1 -p cbr -e 512 -c 2 -a 0 -i 5 -k AGT 
- -t 0.061440000 -s 0 -d -1 -p cbr -e 512 -c 2 -a 0 -i 5 -k AGT
h -t 0.061440000 -s 0 -d -1 -p cbr -e 512 -c 2 -a 0 -i 5 -k AGT
+ -t 0.081920000 -s 0 -d -1 -p cbr -e 512 -c 2 -a 0 -i 6 -k AGT 
- -t 0.081920000 -s 0 -d -1 -p cbr -e 512 -c 2 -a 0 -i 6 -k AGT
h -t 0.081920000 -s 0 -d -1 -p cbr -e 512 -c 2 -a 0 -i 6 -k AGT
+ -t 0.102400000 -s 0 -d -1 -p cbr -e 512 -c 2 -a 0 -i 7 -k AGT 
- -t 0.102400000 -s 0 -d -1 -p cbr -e 512 -c 2 -a 0 -i 7 -k AGT
h -t 0.102400000 -s 0 -d -1 -p cbr -e 512 -c 2 -a 0 -i 7 -k AGT
d -t 0.102400000 -s 0 -d -1 -p cbr -e 532 -c 2 -a 0 -i 0 -k RTR
+ -t 0.122880000 -s 0 -d -1 -p cbr -e 512 -c 2 -a 0 -i 8 -k AGT 
- -t 0.122880000 -s 0 -d -1 -p cbr -e 512 -c 2 -a 0 -i 8 -k AGT
h -t 0.122880000 -s 0 -d -1 -p cbr -e 512 -c 2 -a 0 -i 8 -k AGT
d -t 0.122880000 -s 0 -d -1 -p cbr -e 532 -c 2 -a 0 -i 2 -k RTR
+ -t 0.143360000 -s 0 -d -1 -p cbr -e 512 -c 2 -a 0 -i 9 -k AGT 
- -t 0.143360000 -s 0 -d -1 -p cbr -e 512 -c 2 -a 0 -i 9 -k AGT
h -t 0.143360000 -s 0 -d -1 -p cbr -e 512 -c 2 -a 0 -i 9 -k AGT
d -t 0.143360000 -s 0 -d -1 -p cbr -e 532 -c 2 -a 0 -i 4 -k RTR
+ -t 0.163840000 -s 0 -d -1 -p cbr -e 512 -c 2 -a 0 -i 10 -k AGT 
- -t 0.163840000 -s 0 -d -1 -p cbr -e 512 -c 2 -a 0 -i 10 -k AGT
h -t 0.163840000 -s 0 -d -1 -p cbr -e 512 -c 2 -a 0 -i 10 -k AGT
d -t 0.163840000 -s 0 -d -1 -p cbr -e 532 -c 2 -a 0 -i 5 -k RTR
+ -t 0.182646019 -s 3 -d -1 -p message -e 32 -c 2 -a 0 -i 11 -k RTR 
- -t 0.182646019 -s 3 -d -1 -p message -e 32 -c 2 -a 0 -i 11 -k RTR
h -t 0.182646019 -s 3 -d -1 -p message -e 32 -c 2 -a 0 -i 11 -k RTR
r -t 0.183706686 -s 2 -d -1 -p message -e 32 -c 2 -a 0 -i 11 -k RTR
r -t 0.183706686 -s 4 -d -1 -p message -e 32 -c 2 -a 0 -i 11 -k RTR
+ -t 0.184320000 -s 0 -d -1 -p cbr -e 512 -c 2 -a 0 -i 12 -k AGT 
- -t 0.184320000 -s 0 -d -1 -p cbr -e 512 -c 2 -a 0 -i 12 -k AGT
h -t 0.184320000 -s 0 -d -1 -p cbr -e 512 -c 2 -a 0 -i 12 -k AGT
d -t 0.184320000 -s 0 -d -1 -p cbr -e 532 -c 2 -a 0 -i 6 -k RTR
+ -t 0.204800000 -s 0 -d -1 -p cbr -e 512 -c 2 -a 0 -i 13 -k AGT 
- -t 0.204800000 -s 0 -d -1 -p cbr -e 512 -c 2 -a 0 -i 13 -k AGT
h -t 0.204800000 -s 0 -d -1 -p cbr -e 512 -c 2 -a 0 -i 13 -k AGT
d -t 0.204800000 -s 0 -d -1 -p cbr -e 532 -c 2 -a 0 -i 7 -k RTR
+ -t 0.225280000 -s 0 -d -1 -p cbr -e 512 -c 2 -a 0 -i 14 -k AGT 
- -t 0.225280000 -s 0 -d -1 -p cbr -e 512 -c 2 -a 0 -i 14 -k AGT
h -t 0.225280000 -s 0 -d -1 -p cbr -e 512 -c 2 -a 0 -i 14 -k AGT
d -t 0.225280000 -s 0 -d -1 -p cbr -e 532 -c 2 -a 0 -i 8 -k RTR
+ -t 0.245760000 -s 0 -d -1 -p cbr -e 512 -c 2 -a 0 -i 15 -k AGT 
- -t 0.245760000 -s 0 -d -1 -p cbr -e 512 -c 2 -a 0 -i 15 -k AGT
h -t 0.245760000 -s 0 -d -1 -p cbr -e 512 -c 2 -a 0 -i 15 -k AGT
d -t 0.245760000 -s 0 -d -1 -p cbr -e 532 -c 2 -a 0 -i 9 -k RTR
+ -t 0.266240000 -s 0 -d -1 -p cbr -e 512 -c 2 -a 0 -i 16 -k AGT 
- -t 0.266240000 -s 0 -d -1 -p cbr -e 512 -c 2 -a 0 -i 16 -k AGT
h -t 0.266240000 -s 0 -d -1 -p cbr -e 512 -c 2 -a 0 -i 16 -k AGT
d -t 0.266240000 -s 0 -d -1 -p cbr -e 532 -c 2 -a 0 -i 10 -k RTR
+ -t 0.286720000 -s 0 -d -1 -p cbr -e 512 -c 2 -a 0 -i 17 -k AGT 
- -t 0.286720000 -s 0 -d -1 -p cbr -e 512 -c 2 -a 0 -i 17 -k AGT
h -t 0.286720000 -s 0 -d -1 -p cbr -e 512 -c 2 -a 0 -i 17 -k AGT
d -t 0.286720000 -s 0 -d -1 -p cbr -e 532 -c 2 -a 0 -i 12 -k RTR
+ -t 0.307200000 -s 0 -d -1 -p cbr -e 512 -c 2 -a 0 -i 18 -k AGT 
- -t 0.307200000 -s 0 -d -1 -p cbr -e 512 -c 2 -a 0 -i 18 -k AGT
h -t 0.307200000 -s 0 -d -1 -p cbr -e 512 -c 2 -a 0 -i 18 -k AGT
d -t 0.307200000 -s 0 -d -1 -p cbr -e 532 -c 2 -a 0 -i 13 -k RTR
+ -t 0.327680000 -s 0 -d -1 -p cbr -e 512 -c 2 -a 0 -i 19 -k AGT 
- -t 0.327680000 -s 0 -d -1 -p cbr -e 512 -c 2 -a 0 -i 19 -k AGT
h -t 0.327680000 -s 0 -d -1 -p cbr -e 512 -c 2 -a 0 -i 19 -k AGT
d -t 0.327680000 -s 0 -d -1 -p cbr -e 532 -c 2 -a 0 -i 14 -k RTR
+ -t 0.348160000 -s 0 -d -1 -p cbr -e 512 -c 2 -a 0 -i 20 -k AGT 
- -t 0.348160000 -s 0 -d -1 -p cbr -e 512 -c 2 -a 0 -i 20 -k AGT
h -t 0.348160000 -s 0 -d -1 -p cbr -e 512 -c 2 -a 0 -i 20 -k AGT
d -t 0.348160000 -s 0 -d -1 -p cbr -e 532 -c 2 -a 0 -i 15 -k RTR
+ -t 0.368640000 -s 0 -d -1 -p cbr -e 512 -c 2 -a 0 -i 21 -k AGT 
- -t 0.368640000 -s 0 -d -1 -p cbr -e 512 -c 2 -a 0 -i 21 -k AGT
h -t 0.368640000 -s 0 -d -1 -p cbr -e 512 -c 2 -a 0 -i 21 -k AGT
d -t 0.368640000 -s 0 -d -1 -p cbr -e 532 -c 2 -a 0 -i 16 -k RTR
+ -t 0.389120000 -s 0 -d -1 -p cbr -e 512 -c 2 -a 0 -i 22 -k AGT 
- -t 0.389120000 -s 0 -d -1 -p cbr -e 512 -c 2 -a 0 -i 22 -k AGT
h -t 0.389120000 -s 0 -d -1 -p cbr -e 512 -c 2 -a 0 -i 22 -k AGT
d -t 0.389120000 -s 0 -d -1 -p cbr -e 532 -c 2 -a 0 -i 17 -k RTR
+ -t 0.409600000 -s 0 -d -1 -p cbr -e 512 -c 2 -a 0 -i 23 -k AGT 
- -t 0.409600000 -s 0 -d -1 -p cbr -e 512 -c 2 -a 0 -i 23 -k AGT
h -t 0.409600000 -s 0 -d -1 -p cbr -e 512 -c 2 -a 0 -i 23 -k AGT
d -t 0.409600000 -s 0 -d -1 -p cbr -e 532 -c 2 -a 0 -i 18 -k RTR
+ -t 0.430080000 -s 0 -d -1 -p cbr -e 512 -c 2 -a 0 -i 24 -k AGT 
- -t 0.430080000 -s 0 -d -1 -p cbr -e 512 -c 2 -a 0 -i 24 -k AGT
h -t 0.430080000 -s 0 -d -1 -p cbr -e 512 -c 2 -a 0 -i 24 -k AGT
d -t 0.430080000 -s 0 -d -1 -p cbr -e 532 -c 2 -a 0 -i 19 -k RTR
+ -t 0.450560000 -s 0 -d -1 -p cbr -e 512 -c 2 -a 0 -i 25 -k AGT 
- -t 0.450560000 -s 0 -d -1 -p cbr -e 512 -c 2 -a 0 -i 25 -k AGT
h -t 0.450560000 -s 0 -d -1 -p cbr -e 512 -c 2 -a 0 -i 25 -k AGT
d -t 0.450560000 -s 0 -d -1 -p cbr -e 532 -c 2 -a 0 -i 20 -k RTR
+ -t 0.471040000 -s 0 -d -1 -p cbr -e 512 -c 2 -a 0 -i 26 -k AGT 
- -t 0.471040000 -s 0 -d -1 -p cbr -e 512 -c 2 -a 0 -i 26 -k AGT
h -t 0.471040000 -s 0 -d -1 -p cbr -e 512 -c 2 -a 0 -i 26 -k AGT
d -t 0.471040000 -s 0 -d -1 -p cbr -e 532 -c 2 -a 0 -i 21 -k RTR
+ -t 0.491520000 -s 0 -d -1 -p cbr -e 512 -c 2 -a 0 -i 27 -k AGT 
- -t 0.491520000 -s 0 -d -1 -p cbr -e 512 -c 2 -a 0 -i 27 -k AGT
h -t 0.491520000 -s 0 -d -1 -p cbr -e 512 -c 2 -a 0 -i 27 -k AGT
d -t 0.491520000 -s 0 -d -1 -p cbr -e 532 -c 2 -a 0 -i 22 -k RTR
+ -t 0.512000000 -s 0 -d -1 -p cbr -e 512 -c 2 -a 0 -i 28 -k AGT 
- -t 0.512000000 -s 0 -d -1 -p cbr -e 512 -c 2 -a 0 -i 28 -k AGT
h -t 0.512000000 -s 0 -d -1 -p cbr -e 512 -c 2 -a 0 -i 28 -k AGT
d -t 0.512000000 -s 0 -d -1 -p cbr -e 532 -c 2 -a 0 -i 23 -k RTR
+ -t 0.532480000 -s 0 -d -1 -p cbr -e 512 -c 2 -a 0 -i 29 -k AGT 
- -t 0.532480000 -s 0 -d -1 -p cbr -e 512 -c 2 -a 0 -i 29 -k AGT
h -t 0.532480000 -s 0 -d -1 -p cbr -e 512 -c 2 -a 0 -i 29 -k AGT
d -t 0.532480000 -s 0 -d -1 -p cbr -e 532 -c 2 -a 0 -i 24 -k RTR
+ -t 0.552960000 -s 0 -d -1 -p cbr -e 512 -c 2 -a 0 -i 30 -k AGT 
- -t 0.552960000 -s 0 -d -1 -p cbr -e 512 -c 2 -a 0 -i 30 -k AGT
h -t 0.552960000 -s 0 -d -1 -p cbr -e 512 -c 2 -a 0 -i 30 -k AGT
d -t 0.552960000 -s 0 -d -1 -p cbr -e 532 -c 2 -a 0 -i 25 -k RTR
+ -t 0.573440000 -s 0 -d -1 -p cbr -e 512 -c 2 -a 0 -i 31 -k AGT 
- -t 0.573440000 -s 0 -d -1 -p cbr -e 512 -c 2 -a 0 -i 31 -k AGT
h -t 0.573440000 -s 0 -d -1 -p cbr -e 512 -c 2 -a 0 -i 31 -k AGT
d -t 0.573440000 -s 0 -d -1 -p cbr -e 532 -c 2 -a 0 -i 26 -k RTR
+ -t 0.593920000 -s 0 -d -1 -p cbr -e 512 -c 2 -a 0 -i 32 -k AGT 
- -t 0.593920000 -s 0 -d -1 -p cbr -e 512 -c 2 -a 0 -i 32 -k AGT
h -t 0.593920000 -s 0 -d -1 -p cbr -e 512 -c 2 -a 0 -i 32 -k AGT
d -t 0.593920000 -s 0 -d -1 -p cbr -e 532 -c 2 -a 0 -i 27 -k RTR
+ -t 0.614400000 -s 0 -d -1 -p cbr -e 512 -c 2 -a 0 -i 33 -k AGT 
- -t 0.614400000 -s 0 -d -1 -p cbr -e 512 -c 2 -a 0 -i 33 -k AGT
h -t 0.614400000 -s 0 -d -1 -p cbr -e 512 -c 2 -a 0 -i 33 -k AGT
d -t 0.614400000 -s 0 -d -1 -p cbr -e 532 -c 2 -a 0 -i 28 -k RTR
+ -t 0.634880000 -s 0 -d -1 -p cbr -e 512 -c 2 -a 0 -i 34 -k AGT 
- -t 0.634880000 -s 0 -d -1 -p cbr -e 512 -c 2 -a 0 -i 34 -k AGT
h -t 0.634880000 -s 0 -d -1 -p cbr -e 512 -c 2 -a 0 -i 34 -k AGT
d -t 0.634880000 -s 0 -d -1 -p cbr -e 532 -c 2 -a 0 -i 29 -k RTR
+ -t 0.655360000 -s 0 -d -1 -p cbr -e 512 -c 2 -a 0 -i 35 -k AGT 
- -t 0.655360000 -s 0 -d -1 -p cbr -e 512 -c 2 -a 0 -i 35 -k AGT
h -t 0.655360000 -s 0 -d -1 -p cbr -e 512 -c 2 -a 0 -i 35 -k AGT
d -t 0.655360000 -s 0 -d -1 -p cbr -e 532 -c 2 -a 0 -i 30 -k RTR
+ -t 0.675840000 -s 0 -d -1 -p cbr -e 512 -c 2 -a 0 -i 36 -k AGT 
- -t 0.675840000 -s 0 -d -1 -p cbr -e 512 -c 2 -a 0 -i 36 -k AGT
h -t 0.675840000 -s 0 -d -1 -p cbr -e 512 -c 2 -a 0 -i 36 -k AGT
d -t 0.675840000 -s 0 -d -1 -p cbr -e 532 -c 2 -a 0 -i 31 -k RTR
+ -t 0.696320000 -s 0 -d -1 -p cbr -e 512 -c 2 -a 0 -i 37 -k AGT 
- -t 0.696320000 -s 0 -d -1 -p cbr -e 512 -c 2 -a 0 -i 37 -k AGT
h -t 0.696320000 -s 0 -d -1 -p cbr -e 512 -c 2 -a 0 -i 37 -k AGT
d -t 0.696320000 -s 0 -d -1 -p cbr -e 532 -c 2 -a 0 -i 32 -k RTR
+ -t 0.716800000 -s 0 -d -1 -p cbr -e 512 -c 2 -a 0 -i 38 -k AGT 
- -t 0.716800000 -s 0 -d -1 -p cbr -e 512 -c 2 -a 0 -i 38 -k AGT
h -t 0.716800000 -s 0 -d -1 -p cbr -e 512 -c 2 -a 0 -i 38 -k AGT
d -t 0.716800000 -s 0 -d -1 -p cbr -e 532 -c 2 -a 0 -i 33 -k RTR
+ -t 0.737280000 -s 0 -d -1 -p cbr -e 512 -c 2 -a 0 -i 39 -k AGT 
- -t 0.737280000 -s 0 -d -1 -p cbr -e 512 -c 2 -a 0 -i 39 -k AGT
h -t 0.737280000 -s 0 -d -1 -p cbr -e 512 -c 2 -a 0 -i 39 -k AGT
d -t 0.737280000 -s 0 -d -1 -p cbr -e 532 -c 2 -a 0 -i 34 -k RTR
+ -t 0.757760000 -s 0 -d -1 -p cbr -e 512 -c 2 -a 0 -i 40 -k AGT 
- -t 0.757760000 -s 0 -d -1 -p cbr -e 512 -c 2 -a 0 -i 40 -k AGT
h -t 0.757760000 -s 0 -d -1 -p cbr -e 512 -c 2 -a 0 -i 40 -k AGT
d -t 0.757760000 -s 0 -d -1 -p cbr -e 532 -c 2 -a 0 -i 35 -k RTR
+ -t 0.778240000 -s 0 -d -1 -p cbr -e 512 -c 2 -a 0 -i 41 -k AGT 
- -t 0.778240000 -s 0 -d -1 -p cbr -e 512 -c 2 -a 0 -i 41 -k AGT
h -t 0.778240000 -s 0 -d -1 -p cbr -e 512 -c 2 -a 0 -i 41 -k AGT
d -t 0.778240000 -s 0 -d -1 -p cbr -e 532 -c 2 -a 0 -i 36 -k RTR
+ -t 0.798720000 -s 0 -d -1 -p cbr -e 512 -c 2 -a 0 -i 42 -k AGT 
- -t 0.798720000 -s 0 -d -1 -p cbr -e 512 -c 2 -a 0 -i 42 -k AGT
h -t 0.798720000 -s 0 -d -1 -p cbr -e 512 -c 2 -a 0 -i 42 -k AGT
d -t 0.798720000 -s 0 -d -1 -p cbr -e 532 -c 2 -a 0 -i 37 -k RTR
+ -t 0.819200000 -s 0 -d -1 -p cbr -e 512 -c 2 -a 0 -i 43 -k AGT 
- -t 0.819200000 -s 0 -d -1 -p cbr -e 512 -c 2 -a 0 -i 43 -k AGT
h -t 0.819200000 -s 0 -d -1 -p cbr -e 512 -c 2 -a 0 -i 43 -k AGT
d -t 0.819200000 -s 0 -d -1 -p cbr -e 532 -c 2 -a 0 -i 38 -k RTR
+ -t 0.839680000 -s 0 -d -1 -p cbr -e 512 -c 2 -a 0 -i 44 -k AGT 
- -t 0.839680000 -s 0 -d -1 -p cbr -e 512 -c 2 -a 0 -i 44 -k AGT
h -t 0.839680000 -s 0 -d -1 -p cbr -e 512 -c 2 -a 0 -i 44 -k AGT
d -t 0.839680000 -s 0 -d -1 -p cbr -e 532 -c 2 -a 0 -i 39 -k RTR
+ -t 0.860160000 -s 0 -d -1 -p cbr -e 512 -c 2 -a 0 -i 45 -k AGT 
- -t 0.860160000 -s 0 -d -1 -p cbr -e 512 -c 2 -a 0 -i 45 -k AGT
h -t 0.860160000 -s 0 -d -1 -p cbr -e 512 -c 2 -a 0 -i 45 -k AGT
d -t 0.860160000 -s 0 -d -1 -p cbr -e 532 -c 2 -a 0 -i 40 -k RTR
+ -t 0.880640000 -s 0 -d -1 -p cbr -e 512 -c 2 -a 0 -i 46 -k AGT 
- -t 0.880640000 -s 0 -d -1 -p cbr -e 512 -c 2 -a 0 -i 46 -k AGT
h -t 0.880640000 -s 0 -d -1 -p cbr -e 512 -c 2 -a 0 -i 46 -k AGT
d -t 0.880640000 -s 0 -d -1 -p cbr -e 532 -c 2 -a 0 -i 41 -k RTR
+ -t 0.884094817 -s 4 -d -1 -p message -e 32 -c 2 -a 0 -i 47 -k RTR 
- -t 0.884094817 -s 4 -d -1 -p message -e 32 -c 2 -a 0 -i 47 -k RTR
h -t 0.884094817 -s 4 -d -1 -p message -e 32 -c 2 -a 0 -i 47 -k RTR
r -t 0.885235483 -s 3 -d -1 -p message -e 32 -c 2 -a 0 -i 47 -k RTR
+ -t 0.901120000 -s 0 -d -1 -p cbr -e 512 -c 2 -a 0 -i 48 -k AGT 
- -t 0.901120000 -s 0 -d -1 -p cbr -e 512 -c 2 -a 0 -i 48 -k AGT
h -t 0.901120000 -s 0 -d -1 -p cbr -e 512 -c 2 -a 0 -i 48 -k AGT
d -t 0.901120000 -s 0 -d -1 -p cbr -e 532 -c 2 -a 0 -i 42 -k RTR
+ -t 0.921600000 -s 0 -d -1 -p cbr -e 512 -c 2 -a 0 -i 49 -k AGT 
- -t 0.921600000 -s 0 -d -1 -p cbr -e 512 -c 2 -a 0 -i 49 -k AGT
h -t 0.921600000 -s 0 -d -1 -p cbr -e 512 -c 2 -a 0 -i 49 -k AGT
d -t 0.921600000 -s 0 -d -1 -p cbr -e 532 -c 2 -a 0 -i 43 -k RTR
+ -t 0.942080000 -s 0 -d -1 -p cbr -e 512 -c 2 -a 0 -i 50 -k AGT 
- -t 0.942080000 -s 0 -d -1 -p cbr -e 512 -c 2 -a 0 -i 50 -k AGT
h -t 0.942080000 -s 0 -d -1 -p cbr -e 512 -c 2 -a 0 -i 50 -k AGT
d -t 0.942080000 -s 0 -d -1 -p cbr -e 532 -c 2 -a 0 -i 44 -k RTR
+ -t 0.962560000 -s 0 -d -1 -p cbr -e 512 -c 2 -a 0 -i 51 -k AGT 
- -t 0.962560000 -s 0 -d -1 -p cbr -e 512 -c 2 -a 0 -i 51 -k AGT
h -t 0.962560000 -s 0 -d -1 -p cbr -e 512 -c 2 -a 0 -i 51 -k AGT
d -t 0.962560000 -s 0 -d -1 -p cbr -e 532 -c 2 -a 0 -i 45 -k RTR
+ -t 0.983040000 -s 0 -d -1 -p cbr -e 512 -c 2 -a 0 -i 52 -k AGT 
- -t 0.983040000 -s 0 -d -1 -p cbr -e 512 -c 2 -a 0 -i 52 -k AGT
h -t 0.983040000 -s 0 -d -1 -p cbr -e 512 -c 2 -a 0 -i 52 -k AGT
d -t 0.983040000 -s 0 -d -1 -p cbr -e 532 -c 2 -a 0 -i 46 -k RTR
+ -t 1.003520000 -s 0 -d -1 -p cbr -e 512 -c 2 -a 0 -i 53 -k AGT 
- -t 1.003520000 -s 0 -d -1 -p cbr -e 512 -c 2 -a 0 -i 53 -k AGT
h -t 1.003520000 -s 0 -d -1 -p cbr -e 512 -c 2 -a 0 -i 53 -k AGT
d -t 1.003520000 -s 0 -d -1 -p cbr -e 532 -c 2 -a 0 -i 48 -k RTR
+ -t 1.024000000 -s 0 -d -1 -p cbr -e 512 -c 2 -a 0 -i 54 -k AGT 
- -t 1.024000000 -s 0 -d -1 -p cbr -e 512 -c 2 -a 0 -i 54 -k AGT
h -t 1.024000000 -s 0 -d -1 -p cbr -e 512 -c 2 -a 0 -i 54 -k AGT
d -t 1.024000000 -s 0 -d -1 -p cbr -e 532 -c 2 -a 0 -i 49 -k RTR
+ -t 1.044480000 -s 0 -d -1 -p cbr -e 512 -c 2 -a 0 -i 55 -k AGT 
- -t 1.044480000 -s 0 -d -1 -p cbr -e 512 -c 2 -a 0 -i 55 -k AGT
h -t 1.044480000 -s 0 -d -1 -p cbr -e 512 -c 2 -a 0 -i 55 -k AGT
d -t 1.044480000 -s 0 -d -1 -p cbr -e 532 -c 2 -a 0 -i 50 -k RTR
+ -t 1.064960000 -s 0 -d -1 -p cbr -e 512 -c 2 -a 0 -i 56 -k AGT 
- -t 1.064960000 -s 0 -d -1 -p cbr -e 512 -c 2 -a 0 -i 56 -k AGT
h -t 1.064960000 -s 0 -d -1 -p cbr -e 512 -c 2 -a 0 -i 56 -k AGT
d -t 1.064960000 -s 0 -d -1 -p cbr -e 532 -c 2 -a 0 -i 51 -k RTR
+ -t 1.085440000 -s 0 -d -1 -p cbr -e 512 -c 2 -a 0 -i 57 -k AGT 
- -t 1.085440000 -s 0 -d -1 -p cbr -e 512 -c 2 -a 0 -i 57 -k AGT
h -t 1.085440000 -s 0 -d -1 -p cbr -e 512 -c 2 -a 0 -i 57 -k AGT
d -t 1.085440000 -s 0 -d -1 -p cbr -e 532 -c 2 -a 0 -i 52 -k RTR
+ -t 1.105920000 -s 0 -d -1 -p cbr -e 512 -c 2 -a 0 -i 58 -k AGT 
- -t 1.105920000 -s 0 -d -1 -p cbr -e 512 -c 2 -a 0 -i 58 -k AGT
h -t 1.105920000 -s 0 -d -1 -p cbr -e 512 -c 2 -a 0 -i 58 -k AGT
d -t 1.105920000 -s 0 -d -1 -p cbr -e 532 -c 2 -a 0 -i 53 -k RTR
+ -t 1.114342311 -s 1 -d -1 -p message -e 32 -c 2 -a 0 -i 59 -k RTR 
- -t 1.114342311 -s 1 -d -1 -p message -e 32 -c 2 -a 0 -i 59 -k RTR
h -t 1.114342311 -s 1 -d -1 -p message -e 32 -c 2 -a 0 -i 59 -k RTR
r -t 1.115402978 -s 0 -d -1 -p message -e 32 -c 2 -a 0 -i 59 -k RTR
r -t 1.115402978 -s 2 -d -1 -p message -e 32 -c 2 -a 0 -i 59 -k RTR
r -t 1.115403121 -s 5 -d -1 -p message -e 32 -c 2 -a 0 -i 59 -k RTR
+ -t 1.126400000 -s 0 -d -1 -p cbr -e 512 -c 2 -a 0 -i 60 -k AGT 
- -t 1.126400000 -s 0 -d -1 -p cbr -e 512 -c 2 -a 0 -i 60 -k AGT
h -t 1.126400000 -s 0 -d -1 -p cbr -e 512 -c 2 -a 0 -i 60 -k AGT
d -t 1.126400000 -s 0 -d -1 -p cbr -e 532 -c 2 -a 0 -i 54 -k RTR
+ -t 1.146880000 -s 0 -d -1 -p cbr -e 512 -c 2 -a 0 -i 61 -k AGT 
- -t 1.146880000 -s 0 -d -1 -p cbr -e 512 -c 2 -a 0 -i 61 -k AGT
h -t 1.146880000 -s 0 -d -1 -p cbr -e 512 -c 2 -a 0 -i 61 -k AGT
d -t 1.146880000 -s 0 -d -1 -p cbr -e 532 -c 2 -a 0 -i 55 -k RTR
+ -t 1.167360000 -s 0 -d -1 -p cbr -e 512 -c 2 -a 0 -i 62 -k AGT 
- -t 1.167360000 -s 0 -d -1 -p cbr -e 512 -c 2 -a 0 -i 62 -k AGT
h -t 1.167360000 -s 0 -d -1 -p cbr -e 512 -c 2 -a 0 -i 62 -k AGT
d -t 1.167360000 -s 0 -d -1 -p cbr -e 532 -c 2 -a 0 -i 56 -k RTR
+ -t 1.187840000 -s 0 -d -1 -p cbr -e 512 -c 2 -a 0 -i 63 -k AGT 
- -t 1.187840000 -s 0 -d -1 -p cbr -e 512 -c 2 -a 0 -i 63 -k AGT
h -t 1.187840000 -s 0 -d -1 -p cbr -e 512 -c 2 -a 0 -i 63 -k AGT
d -t 1.187840000 -s 0 -d -1 -p cbr -e 532 -c 2 -a 0 -i 57 -k RTR
+ -t 1.208320000 -s 0 -d -1 -p cbr -e 512 -c 2 -a 0 -i 64 -k AGT 
- -t 1.208320000 -s 0 -d -1 -p cbr -e 512 -c 2 -a 0 -i 64 -k AGT
h -t 1.208320000 -s 0 -d -1 -p cbr -e 512 -c 2 -a 0 -i 64 -k AGT
d -t 1.208320000 -s 0 -d -1 -p cbr -e 532 -c 2 -a 0 -i 58 -k RTR
+ -t 1.228800000 -s 0 -d -1 -p cbr -e 512 -c 2 -a 0 -i 65 -k AGT 
- -t 1.228800000 -s 0 -d -1 -p cbr -e 512 -c 2 -a 0 -i 65 -k AGT
h -t 1.228800000 -s 0 -d -1 -p cbr -e 512 -c 2 -a 0 -i 65 -k AGT
d -t 1.228800000 -s 0 -d -1 -p cbr -e 532 -c 2 -a 0 -i 60 -k RTR
+ -t 1.249280000 -s 0 -d -1 -p cbr -e 512 -c 2 -a 0 -i 66 -k AGT 
- -t 1.249280000 -s 0 -d -1 -p cbr -e 512 -c 2 -a 0 -i 66 -k AGT
h -t 1.249280000 -s 0 -d -1 -p cbr -e 512 -c 2 -a 0 -i 66 -k AGT
d -t 1.249280000 -s 0 -d -1 -p cbr -e 532 -c 2 -a 0 -i 61 -k RTR
+ -t 1.269760000 -s 0 -d -1 -p cbr -e 512 -c 2 -a 0 -i 67 -k AGT 
- -t 1.269760000 -s 0 -d -1 -p cbr -e 512 -c 2 -a 0 -i 67 -k AGT
h -t 1.269760000 -s 0 -d -1 -p cbr -e 512 -c 2 -a 0 -i 67 -k AGT
d -t 1.269760000 -s 0 -d -1 -p cbr -e 532 -c 2 -a 0 -i 62 -k RTR
+ -t 1.290240000 -s 0 -d -1 -p cbr -e 512 -c 2 -a 0 -i 68 -k AGT 
- -t 1.290240000 -s 0 -d -1 -p cbr -e 512 -c 2 -a 0 -i 68 -k AGT
h -t 1.290240000 -s 0 -d -1 -p cbr -e 512 -c 2 -a 0 -i 68 -k AGT
d -t 1.290240000 -s 0 -d -1 -p cbr -e 532 -c 2 -a 0 -i 63 -k RTR
+ -t 1.310720000 -s 0 -d -1 -p cbr -e 512 -c 2 -a 0 -i 69 -k AGT 
- -t 1.310720000 -s 0 -d -1 -p cbr -e 512 -c 2 -a 0 -i 69 -k AGT
h -t 1.310720000 -s 0 -d -1 -p cbr -e 512 -c 2 -a 0 -i 69 -k AGT
d -t 1.310720000 -s 0 -d -1 -p cbr -e 532 -c 2 -a 0 -i 64 -k RTR
+ -t 1.331200000 -s 0 -d -1 -p cbr -e 512 -c 2 -a 0 -i 70 -k AGT 
- -t 1.331200000 -s 0 -d -1 -p cbr -e 512 -c 2 -a 0 -i 70 -k AGT
h -t 1.331200000 -s 0 -d -1 -p cbr -e 512 -c 2 -a 0 -i 70 -k AGT
d -t 1.331200000 -s 0 -d -1 -p cbr -e 532 -c 2 -a 0 -i 65 -k RTR
+ -t 1.351680000 -s 0 -d -1 -p cbr -e 512 -c 2 -a 0 -i 71 -k AGT 
- -t 1.351680000 -s 0 -d -1 -p cbr -e 512 -c 2 -a 0 -i 71 -k AGT
h -t 1.351680000 -s 0 -d -1 -p cbr -e 512 -c 2 -a 0 -i 71 -k AGT
d -t 1.351680000 -s 0 -d -1 -p cbr -e 532 -c 2 -a 0 -i 66 -k RTR
+ -t 1.372160000 -s 0 -d -1 -p cbr -e 512 -c 2 -a 0 -i 72 -k AGT 
- -t 1.372160000 -s 0 -d -1 -p cbr -e 512 -c 2 -a 0 -i 72 -k AGT
h -t 1.372160000 -s 0 -d -1 -p cbr -e 512 -c 2 -a 0 -i 72 -k AGT
d -t 1.372160000 -s 0 -d -1 -p cbr -e 532 -c 2 -a 0 -i 67 -k RTR
+ -t 1.392640000 -s 0 -d -1 -p cbr -e 512 -c 2 -a 0 -i 73 -k AGT 
- -t 1.392640000 -s 0 -d -1 -p cbr -e 512 -c 2 -a 0 -i 73 -k AGT
h -t 1.392640000 -s 0 -d -1 -p cbr -e 512 -c 2 -a 0 -i 73 -k AGT
d -t 1.392640000 -s 0 -d -1 -p cbr -e 532 -c 2 -a 0 -i 68 -k RTR
+ -t 1.413120000 -s 0 -d -1 -p cbr -e 512 -c 2 -a 0 -i 74 -k AGT 
- -t 1.413120000 -s 0 -d -1 -p cbr -e 512 -c 2 -a 0 -i 74 -k AGT
h -t 1.413120000 -s 0 -d -1 -p cbr -e 512 -c 2 -a 0 -i 74 -k AGT
d -t 1.413120000 -s 0 -d -1 -p cbr -e 532 -c 2 -a 0 -i 69 -k RTR
+ -t 1.433600000 -s 0 -d -1 -p cbr -e 512 -c 2 -a 0 -i 75 -k AGT 
- -t 1.433600000 -s 0 -d -1 -p cbr -e 512 -c 2 -a 0 -i 75 -k AGT
h -t 1.433600000 -s 0 -d -1 -p cbr -e 512 -c 2 -a 0 -i 75 -k AGT
d -t 1.433600000 -s 0 -d -1 -p cbr -e 532 -c 2 -a 0 -i 70 -k RTR
+ -t 1.454080000 -s 0 -d -1 -p cbr -e 512 -c 2 -a 0 -i 76 -k AGT 
- -t 1.454080000 -s 0 -d -1 -p cbr -e 512 -c 2 -a 0 -i 76 -k AGT
h -t 1.454080000 -s 0 -d -1 -p cbr -e 512 -c 2 -a 0 -i 76 -k AGT
d -t 1.454080000 -s 0 -d -1 -p cbr -e 532 -c 2 -a 0 -i 71 -k RTR
+ -t 1.474560000 -s 0 -d -1 -p cbr -e 512 -c 2 -a 0 -i 77 -k AGT 
- -t 1.474560000 -s 0 -d -1 -p cbr -e 512 -c 2 -a 0 -i 77 -k AGT
h -t 1.474560000 -s 0 -d -1 -p cbr -e 512 -c 2 -a 0 -i 77 -k AGT
d -t 1.474560000 -s 0 -d -1 -p cbr -e 532 -c 2 -a 0 -i 72 -k RTR
+ -t 1.495040000 -s 0 -d -1 -p cbr -e 512 -c 2 -a 0 -i 78 -k AGT 
- -t 1.495040000 -s 0 -d -1 -p cbr -e 512 -c 2 -a 0 -i 78 -k AGT
h -t 1.495040000 -s 0 -d -1 -p cbr -e 512 -c 2 -a 0 -i 78 -k AGT
d -t 1.495040000 -s 0 -d -1 -p cbr -e 532 -c 2 -a 0 -i 73 -k RTR
+ -t 1.515520000 -s 0 -d -1 -p cbr -e 512 -c 2 -a 0 -i 79 -k AGT 
- -t 1.515520000 -s 0 -d -1 -p cbr -e 512 -c 2 -a 0 -i 79 -k AGT
h -t 1.515520000 -s 0 -d -1 -p cbr -e 512 -c 2 -a 0 -i 79 -k AGT
d -t 1.515520000 -s 0 -d -1 -p cbr -e 532 -c 2 -a 0 -i 74 -k RTR
+ -t 1.536000000 -s 0 -d -1 -p cbr -e 512 -c 2 -a 0 -i 80 -k AGT 
- -t 1.536000000 -s 0 -d -1 -p cbr -e 512 -c 2 -a 0 -i 80 -k AGT
h -t 1.536000000 -s 0 -d -1 -p cbr -e 512 -c 2 -a 0 -i 80 -k AGT
d -t 1.536000000 -s 0 -d -1 -p cbr -e 532 -c 2 -a 0 -i 75 -k RTR
+ -t 1.556480000 -s 0 -d -1 -p cbr -e 512 -c 2 -a 0 -i 81 -k AGT 
- -t 1.556480000 -s 0 -d -1 -p cbr -e 512 -c 2 -a 0 -i 81 -k AGT
h -t 1.556480000 -s 0 -d -1 -p cbr -e 512 -c 2 -a 0 -i 81 -k AGT
d -t 1.556480000 -s 0 -d -1 -p cbr -e 532 -c 2 -a 0 -i 76 -k RTR
+ -t 1.576960000 -s 0 -d -1 -p cbr -e 512 -c 2 -a 0 -i 82 -k AGT 
- -t 1.576960000 -s 0 -d -1 -p cbr -e 512 -c 2 -a 0 -i 82 -k AGT
h -t 1.576960000 -s 0 -d -1 -p cbr -e 512 -c 2 -a 0 -i 82 -k AGT
d -t 1.576960000 -s 0 -d -1 -p cbr -e 532 -c 2 -a 0 -i 77 -k RTR
+ -t 1.597440000 -s 0 -d -1 -p cbr -e 512 -c 2 -a 0 -i 83 -k AGT 
- -t 1.597440000 -s 0 -d -1 -p cbr -e 512 -c 2 -a 0 -i 83 -k AGT
h -t 1.597440000 -s 0 -d -1 -p cbr -e 512 -c 2 -a 0 -i 83 -k AGT
d -t 1.597440000 -s 0 -d -1 -p cbr -e 532 -c 2 -a 0 -i 78 -k RTR
+ -t 1.605233975 -s 5 -d -1 -p message -e 32 -c 2 -a 0 -i 84 -k RTR 
- -t 1.605233975 -s 5 -d -1 -p message -e 32 -c 2 -a 0 -i 84 -k RTR
h -t 1.605233975 -s 5 -d -1 -p message -e 32 -c 2 -a 0 -i 84 -k RTR
r -t 1.606454477 -s 0 -d -1 -p message -e 32 -c 2 -a 0 -i 84 -k RTR
+ -t 1.606454477 -s 0 -d 5 -p cbr -e 552 -c 2 -a 0 -i 79 -k RTR 
- -t 1.606454477 -s 0 -d 5 -p cbr -e 552 -c 2 -a 0 -i 79 -k RTR
h -t 1.606454477 -s 0 -d 5 -p cbr -e 552 -c 2 -a 0 -i 79 -k RTR
+ -t 1.606454477 -s 0 -d 5 -p cbr -e 552 -c 2 -a 0 -i 80 -k RTR 
- -t 1.606454477 -s 0 -d 5 -p cbr -e 552 -c 2 -a 0 -i 80 -k RTR
h -t 1.606454477 -s 0 -d 5 -p cbr -e 552 -c 2 -a 0 -i 80 -k RTR
d -t 1.606454477 -s 0 -d 5 -p cbr -e 552 -c 2 -a 0 -i 79 -k IFQ
+ -t 1.606454477 -s 0 -d 5 -p cbr -e 552 -c 2 -a 0 -i 81 -k RTR 
- -t 1.606454477 -s 0 -d 5 -p cbr -e 552 -c 2 -a 0 -i 81 -k RTR
h -t 1.606454477 -s 0 -d 5 -p cbr -e 552 -c 2 -a 0 -i 81 -k RTR
d -t 1.606454477 -s 0 -d 5 -p cbr -e 552 -c 2 -a 0 -i 80 -k IFQ
+ -t 1.606454477 -s 0 -d 5 -p cbr -e 552 -c 2 -a 0 -i 82 -k RTR 
- -t 1.606454477 -s 0 -d 5 -p cbr -e 552 -c 2 -a 0 -i 82 -k RTR
h -t 1.606454477 -s 0 -d 5 -p cbr -e 552 -c 2 -a 0 -i 82 -k RTR
d -t 1.606454477 -s 0 -d 5 -p cbr -e 552 -c 2 -a 0 -i 81 -k RTR
d -t 1.606454477 -s 0 -d 5 -p cbr -e 552 -c 2 -a 0 -i 82 -k RTR
+ -t 1.606454477 -s 0 -d 5 -p cbr -e 552 -c 2 -a 0 -i 83 -k RTR 
- -t 1.606454477 -s 0 -d 5 -p cbr -e 552 -c 2 -a 0 -i 83 -k RTR
h -t 1.606454477 -s 0 -d 5 -p cbr -e 552 -c 2 -a 0 -i 83 -k RTR
r -t 1.606454775 -s 1 -d -1 -p message -e 32 -c 2 -a 0 -i 84 -k RTR
+ -t 1.617920000 -s 0 -d -1 -p cbr -e 512 -c 2 -a 0 -i 85 -k AGT 
- -t 1.617920000 -s 0 -d -1 -p cbr -e 512 -c 2 -a 0 -i 85 -k AGT
h -t 1.617920000 -s 0 -d -1 -p cbr -e 512 -c 2 -a 0 -i 85 -k AGT
+ -t 1.617920000 -s 0 -d 5 -p cbr -e 532 -c 2 -a 0 -i 85 -k RTR 
- -t 1.617920000 -s 0 -d 5 -p cbr -e 532 -c 2 -a 0 -i 85 -k RTR
h -t 1.617920000 -s 0 -d 5 -p cbr -e 532 -c 2 -a 0 -i 85 -k RTR
r -t 1.619423997 -s 5 -d 5 -p cbr -e 552 -c 2 -a 0 -i 83 -k AGT
r -t 1.625386005 -s 5 -d 5 -p cbr -e 532 -c 2 -a 0 -i 85 -k AGT
+ -t 1.638400000 -s 0 -d -1 -p cbr -e 512 -c 2 -a 0 -i 86 -k AGT 
- -t 1.638400000 -s 0 -d -1 -p cbr -e 512 -c 2 -a 0 -i 86 -k AGT
h -t 1.638400000 -s 0 -d -1 -p cbr -e 512 -c 2 -a 0 -i 86 -k AGT
+ -t 1.638400000 -s 0 -d 5 -p cbr -e 532 -c 2 -a 0 -i 86 -k RTR 
- -t 1.638400000 -s 0 -d 5 -p cbr -e 532 -c 2 -a 0 -i 86 -k RTR
h -t 1.638400000 -s 0 -d 5 -p cbr -e 532 -c 2 -a 0 -i 86 -k RTR
r -t 1.644097506 -s 5 -d 5 -p cbr -e 532 -c 2 -a 0 -i 86 -k AGT
+ -t 1.658880000 -s 0 -d -1 -p cbr -e 512 -c 2 -a 0 -i 87 -k AGT 
- -t 1.658880000 -s 0 -d -1 -p cbr -e 512 -c 2 -a 0 -i 87 -k AGT
h -t 1.658880000 -s 0 -d -1 -p cbr -e 512 -c 2 -a 0 -i 87 -k AGT
+ -t 1.658880000 -s 0 -d 5 -p cbr -e 532 -c 2 -a 0 -i 87 -k RTR 
- -t 1.658880000 -s 0 -d 5 -p cbr -e 532 -c 2 -a 0 -i 87 -k RTR
h -t 1.658880000 -s 0 -d 5 -p cbr -e 532 -c 2 -a 0 -i 87 -k RTR
r -t 1.664437506 -s 5 -d 5 -p cbr -e 532 -c 2 -a 0 -i 87 -k AGT
+ -t 1.679360000 -s 0 -d -1 -p cbr -e 512 -c 2 -a 0 -i 88 -k AGT 
- -t 1.679360000 -s 0 -d -1 -p cbr -e 512 -c 2 -a 0 -i 88 -k AGT
h -t 1.679360000 -s 0 -d -1 -p cbr -e 512 -c 2 -a 0 -i 88 -k AGT
+ -t 1.679360000 -s 0 -d 5 -p cbr -e 532 -c 2 -a 0 -i 88 -k RTR 
- -t 1.679360000 -s 0 -d 5 -p cbr -e 532 -c 2 -a 0 -i 88 -k RTR
h -t 1.679360000 -s 0 -d 5 -p cbr -e 532 -c 2 -a 0 -i 88 -k RTR
r -t 1.685197506 -s 5 -d 5 -p cbr -e 532 -c 2 -a 0 -i 88 -k AGT
+ -t 1.699840000 -s 0 -d -1 -p cbr -e 512 -c 2 -a 0 -i 89 -k AGT 
- -t 1.699840000 -s 0 -d -1 -p cbr -e 512 -c 2 -a 0 -i 89 -k AGT
h -t 1.699840000 -s 0 -d -1 -p cbr -e 512 -c 2 -a 0 -i 89 -k AGT
+ -t 1.699840000 -s 0 -d 5 -p cbr -e 532 -c 2 -a 0 -i 89 -k RTR 
- -t 1.699840000 -s 0 -d 5 -p cbr -e 532 -c 2 -a 0 -i 89 -k RTR
h -t 1.699840000 -s 0 -d 5 -p cbr -e 532 -c 2 -a 0 -i 89 -k RTR
r -t 1.705617506 -s 5 -d 5 -p cbr -e 532 -c 2 -a 0 -i 89 -k AGT
+ -t 1.720320000 -s 0 -d -1 -p cbr -e 512 -c 2 -a 0 -i 90 -k AGT 
- -t 1.720320000 -s 0 -d -1 -p cbr -e 512 -c 2 -a 0 -i 90 -k AGT
h -t 1.720320000 -s 0 -d -1 -p cbr -e 512 -c 2 -a 0 -i 90 -k AGT
+ -t 1.720320000 -s 0 -d 5 -p cbr -e 532 -c 2 -a 0 -i 90 -k RTR 
- -t 1.720320000 -s 0 -d 5 -p cbr -e 532 -c 2 -a 0 -i 90 -k RTR
h -t 1.720320000 -s 0 -d 5 -p cbr -e 532 -c 2 -a 0 -i 90 -k RTR
r -t 1.726097506 -s 5 -d 5 -p cbr -e 532 -c 2 -a 0 -i 90 -k AGT
+ -t 1.740800000 -s 0 -d -1 -p cbr -e 512 -c 2 -a 0 -i 91 -k AGT 
- -t 1.740800000 -s 0 -d -1 -p cbr -e 512 -c 2 -a 0 -i 91 -k AGT
h -t 1.740800000 -s 0 -d -1 -p cbr -e 512 -c 2 -a 0 -i 91 -k AGT
+ -t 1.740800000 -s 0 -d 5 -p cbr -e 532 -c 2 -a 0 -i 91 -k RTR 
- -t 1.740800000 -s 0 -d 5 -p cbr -e 532 -c 2 -a 0 -i 91 -k RTR
h -t 1.740800000 -s 0 -d 5 -p cbr -e 532 -c 2 -a 0 -i 91 -k RTR
r -t 1.746297506 -s 5 -d 5 -p cbr -e 532 -c 2 -a 0 -i 91 -k AGT
+ -t 1.761280000 -s 0 -d -1 -p cbr -e 512 -c 2 -a 0 -i 92 -k AGT 
- -t 1.761280000 -s 0 -d -1 -p cbr -e 512 -c 2 -a 0 -i 92 -k AGT
h -t 1.761280000 -s 0 -d -1 -p cbr -e 512 -c 2 -a 0 -i 92 -k AGT
+ -t 1.761280000 -s 0 -d 5 -p cbr -e 532 -c 2 -a 0 -i 92 -k RTR 
- -t 1.761280000 -s 0 -d 5 -p cbr -e 532 -c 2 -a 0 -i 92 -k RTR
h -t 1.761280000 -s 0 -d 5 -p cbr -e 532 -c 2 -a 0 -i 92 -k RTR
r -t 1.767097507 -s 5 -d 5 -p cbr -e 532 -c 2 -a 0 -i 92 -k AGT
+ -t 1.781760000 -s 0 -d -1 -p cbr -e 512 -c 2 -a 0 -i 93 -k AGT 
- -t 1.781760000 -s 0 -d -1 -p cbr -e 512 -c 2 -a 0 -i 93 -k AGT
h -t 1.781760000 -s 0 -d -1 -p cbr -e 512 -c 2 -a 0 -i 93 -k AGT
+ -t 1.781760000 -s 0 -d 5 -p cbr -e 532 -c 2 -a 0 -i 93 -k RTR 
- -t 1.781760000 -s 0 -d 5 -p cbr -e 532 -c 2 -a 0 -i 93 -k RTR
h -t 1.781760000 -s 0 -d 5 -p cbr -e 532 -c 2 -a 0 -i 93 -k RTR
r -t 1.787477507 -s 5 -d 5 -p cbr -e 532 -c 2 -a 0 -i 93 -k AGT
+ -t 1.802240000 -s 0 -d -1 -p cbr -e 512 -c 2 -a 0 -i 94 -k AGT 
- -t 1.802240000 -s 0 -d -1 -p cbr -e 512 -c 2 -a 0 -i 94 -k AGT
h -t 1.802240000 -s 0 -d -1 -p cbr -e 512 -c 2 -a 0 -i 94 -k AGT
+ -t 1.802240000 -s 0 -d 5 -p cbr -e 532 -c 2 -a 0 -i 94 -k RTR 
- -t 1.802240000 -s 0 -d 5 -p cbr -e 532 -c 2 -a 0 -i 94 -k RTR
h -t 1.802240000 -s 0 -d 5 -p cbr -e 532 -c 2 -a 0 -i 94 -k RTR
r -t 1.808037507 -s 5 -d 5 -p cbr -e 532 -c 2 -a 0 -i 94 -k AGT
+ -t 1.822720000 -s 0 -d -1 -p cbr -e 512 -c 2 -a 0 -i 95 -k AGT 
- -t 1.822720000 -s 0 -d -1 -p cbr -e 512 -c 2 -a 0 -i 95 -k AGT
h -t 1.822720000 -s 0 -d -1 -p cbr -e 512 -c 2 -a 0 -i 95 -k AGT
+ -t 1.822720000 -s 0 -d 5 -p cbr -e 532 -c 2 -a 0 -i 95 -k RTR 
- -t 1.822720000 -s 0 -d 5 -p cbr -e 532 -c 2 -a 0 -i 95 -k RTR
h -t 1.822720000 -s 0 -d 5 -p cbr -e 532 -c 2 -a 0 -i 95 -k RTR
r -t 1.828457507 -s 5 -d 5 -p cbr -e 532 -c 2 -a 0 -i 95 -k AGT
+ -t 1.843200000 -s 0 -d -1 -p cbr -e 512 -c 2 -a 0 -i 96 -k AGT 
- -t 1.843200000 -s 0 -d -1 -p cbr -e 512 -c 2 -a 0 -i 96 -k AGT
h -t 1.843200000 -s 0 -d -1 -p cbr -e 512 -c 2 -a 0 -i 96 -k AGT
+ -t 1.843200000 -s 0 -d 5 -p cbr -e 532 -c 2 -a 0 -i 96 -k RTR 
- -t 1.843200000 -s 0 -d 5 -p cbr -e 532 -c 2 -a 0 -i 96 -k RTR
h -t 1.843200000 -s 0 -d 5 -p cbr -e 532 -c 2 -a 0 -i 96 -k RTR
r -t 1.848977507 -s 5 -d 5 -p cbr -e 532 -c 2 -a 0 -i 96 -k AGT
+ -t 1.863680000 -s 0 -d -1 -p cbr -e 512 -c 2 -a 0 -i 97 -k AGT 
- -t 1.863680000 -s 0 -d -1 -p cbr -e 512 -c 2 -a 0 -i 97 -k AGT
h -t 1.863680000 -s 0 -d -1 -p cbr -e 512 -c 2 -a 0 -i 97 -k AGT
+ -t 1.863680000 -s 0 -d 5 -p cbr -e 532 -c 2 -a 0 -i 97 -k RTR 
- -t 1.863680000 -s 0 -d 5 -p cbr -e 532 -c 2 -a 0 -i 97 -k RTR
h -t 1.863680000 -s 0 -d 5 -p cbr -e 532 -c 2 -a 0 -i 97 -k RTR