M 0.00000 5 (0.00, 200.00, 0.00), (800.00, 200.00), 8.01
s -t 0.000000000 -Hs 0 -Hd -2 -Ni 0 -Nx 0.00 -Ny 50.00 -Nz 0.00 -Ne -1.000000 -Nl AGT -Nw --- -Ma 0 -Md 0 -Ms 0 -Mt 0 -Is 0.0 -Id 5.0 -It cbr -Il 512 -If 0 -Ii 0 -Iv 32 -Pn cbr -Pi 0 -Pf 0 -Po 0 
T 0.000000000 _0_ tora enq 0->5
T 0.000000000 _0_ tora sendQRY 5
s -t 0.000003396 -Hs 0 -Hd -2 -Ni 0 -Nx 0.00 -Ny 50.00 -Nz 0.00 -Ne -1.000000 -Nl RTR -Nw --- -Ma 0 -Md 0 -Ms 0 -Mt 0 -Is 0.255 -Id -1.255 -It IMEP -Il 38 -If 0 -Ii 2 -Iv 1 -P imep -Pa - -Ph - -Po O -Pl 0x0012 ] 
s -t 0.020480000 -Hs 0 -Hd -2 -Ni 0 -Nx 0.00 -Ny 50.00 -Nz 0.00 -Ne -1.000000 -Nl AGT -Nw --- -Ma 0 -Md 0 -Ms 0 -Mt 0 -Is 0.0 -Id 5.0 -It cbr -Il 512 -If 0 -Ii 5 -Iv 32 -Pn cbr -Pi 1 -Pf 0 -Po 0 
T 0.020480000 _0_ tora enq 0->5
s -t 0.040960000 -Hs 0 -Hd -2 -Ni 0 -Nx 0.00 -Ny 50.00 -Nz 0.00 -Ne -1.000000 -Nl AGT -Nw --- -Ma 0 -Md 0 -Ms 0 -Mt 0 -Is 0.0 -Id 5.0 -It cbr -Il 512 -If 0 -Ii 6 -Iv 32 -Pn cbr -Pi 2 -Pf 0 -Po 0 
T 0.040960000 _0_ tora enq 0->5
s -t 0.061440000 -Hs 0 -Hd -2 -Ni 0 -Nx 0.00 -Ny 50.00 -Nz 0.00 -Ne -1.000000 -Nl AGT -Nw --- -Ma 0 -Md 0 -Ms 0 -Mt 0 -Is 0.0 -Id 5.0 -It cbr -Il 512 -If 0 -Ii 7 -Iv 32 -Pn cbr -Pi 3 -Pf 0 -Po 0 
T 0.061440000 _0_ tora enq 0->5
s -t 0.081920000 -Hs 0 -Hd -2 -Ni 0 -Nx 0.00 -Ny 50.00 -Nz 0.00 -Ne -1.000000 -Nl AGT -Nw --- -Ma 0 -Md 0 -Ms 0 -Mt 0 -Is 0.0 -Id 5.0 -It cbr -Il 512 -If 0 -Ii 8 -Iv 32 -Pn cbr -Pi 4 -Pf 0 -Po 0 
T 0.081920000 _0_ tora enq 0->5
s -t 0.102400000 -Hs 0 -Hd -2 -Ni 0 -Nx 0.00 -Ny 50.00 -Nz 0.00 -Ne -1.000000 -Nl AGT -Nw --- -Ma 0 -Md 0 -Ms 0 -Mt 0 -Is 0.0 -Id 5.0 -It cbr -Il 512 -If 0 -Ii 9 -Iv 32 -Pn cbr -Pi 5 -Pf 0 -Po 0 
T 0.102400000 _0_ tora enq 0->5
s -t 0.122880000 -Hs 0 -Hd -2 -Ni 0 -Nx 0.00 -Ny 50.00 -Nz 0.00 -Ne -1.000000 -Nl AGT -Nw --- -Ma 0 -Md 0 -Ms 0 -Mt 0 -Is 0.0 -Id 5.0 -It cbr -Il 512 -If 0 -Ii 10 -Iv 32 -Pn cbr -Pi 6 -Pf 0 -Po 0 
T 0.122880000 _0_ tora enq 0->5
s -t 0.143360000 -Hs 0 -Hd -2 -Ni 0 -Nx 0.00 -Ny 50.00 -Nz 0.00 -Ne -1.000000 -Nl AGT -Nw --- -Ma 0 -Md 0 -Ms 0 -Mt 0 -Is 0.0 -Id 5.0 -It cbr -Il 512 -If 0 -Ii 11 -Iv 32 -Pn cbr -Pi 7 -Pf 0 -Po 0 
T 0.143360000 _0_ tora enq 0->5
s -t 0.159724163 -Hs 5 -Hd -2 -Ni 5 -Nx 1.28 -Ny 200.00 -Nz 0.00 -Ne -1.000000 -Nl RTR -Nw --- -Ma 0 -Md 0 -Ms 0 -Mt 0 -Is 5.255 -Id -1.255 -It IMEP -Il 34 -If 0 -Ii 12 -Iv 1 -P imep -Pa - -Ph H -Po - -Pl 0x000e ] 
T 0.160560663 _0_ QRY 5 for 5 (rtreq set)
T 0.160560663 _0_ tora sendQRY 5
s -t 0.162906680 -Hs 0 -Hd -2 -Ni 0 -Nx 0.00 -Ny 50.00 -Nz 0.00 -Ne -1.000000 -Nl RTR -Nw --- -Ma 0 -Md 0 -Ms 0 -Mt 0 -Is 0.255 -Id -1.255 -It IMEP -Il 52 -If 0 -Ii 16 -Iv 1 -P imep -Pa - -Ph H -Po O -Pl 0x0020 ] 
s -t 0.163840000 -Hs 0 -Hd -2 -Ni 0 -Nx 0.00 -Ny 50.00 -Nz 0.00 -Ne -1.000000 -Nl AGT -Nw --- -Ma 0 -Md 0 -Ms 0 -Mt 0 -Is 0.0 -Id 5.0 -It cbr -Il 512 -If 0 -Ii 17 -Iv 32 -Pn cbr -Pi 8 -Pf 0 -Po 0 
s -t 0.163840000 -Hs 0 -Hd 5 -Ni 0 -Nx 0.00 -Ny 50.00 -Nz 0.00 -Ne -1.000000 -Nl RTR -Nw --- -Ma 0 -Md 0 -Ms 0 -Mt 0 -Is 0.0 -Id 5.0 -It cbr -Il 532 -If 0 -Ii 17 -Iv 32 -Pn cbr -Pi 8 -Pf 0 -Po 0 
r -t 0.172667181 -Hs 5 -Hd 5 -Ni 5 -Nx 1.38 -Ny 200.00 -Nz 0.00 -Ne -1.000000 -Nl AGT -Nw --- -Ma 13a -Md 5 -Ms 0 -Mt 800 -Is 0.0 -Id 5.0 -It cbr -Il 532 -If 0 -Ii 17 -Iv 32 -Pn cbr -Pi 8 -Pf 1 -Po 0 
s -t 0.184320000 -Hs 0 -Hd -2 -Ni 0 -Nx 0.00 -Ny 50.00 -Nz 0.00 -Ne -1.000000 -Nl AGT -Nw --- -Ma 0 -Md 0 -Ms 0 -Mt 0 -Is 0.0 -Id 5.0 -It cbr -Il 512 -If 0 -Ii 18 -Iv 32 -Pn cbr -Pi 9 -Pf 0 -Po 0 
s -t 0.184320000 -Hs 0 -Hd 5 -Ni 0 -Nx 0.00 -Ny 50.00 -Nz 0.00 -Ne -1.000000 -Nl RTR -Nw --- -Ma 0 -Md 0 -Ms 0 -Mt 0 -Is 0.0 -Id 5.0 -It cbr -Il 532 -If 0 -Ii 18 -Iv 32 -Pn cbr -Pi 9 -Pf 0 -Po 0 
r -t 0.190177500 -Hs 5 -Hd 5 -Ni 5 -Nx 1.52 -Ny 200.00 -Nz 0.00 -Ne -1.000000 -Nl AGT -Nw --- -Ma 13a -Md 5 -Ms 0 -Mt 800 -Is 0.0 -Id 5.0 -It cbr -Il 532 -If 0 -Ii 18 -Iv 32 -Pn cbr -Pi 9 -Pf 1 -Po 0 
s -t 0.195029401 -Hs 1 -Hd -2 -Ni 1 -Nx 200.00 -Ny 50.00 -Nz 0.00 -Ne -1.000000 -Nl RTR -Nw --- -Ma 0 -Md 0 -Ms 0 -Mt 0 -Is 1.255 -Id -1.255 -It IMEP -Il 38 -If 0 -Ii 19 -Iv 1 -P imep -Pa - -Ph H -Po - -Pl 0x0012 ] 
T 0.196058067 _0_ QRY 5 for 1 (rtreq set)
T 0.196058067 _0_ tora sendQRY 5
T 0.196058230 _5_ QRY 83886085 for 1 (rtreq set)
T 0.196058230 _5_ tora sendQRY 83886085
s -t 0.200145087 -Hs 5 -Hd -2 -Ni 5 -Nx 1.60 -Ny 200.00 -Nz 0.00 -Ne -1.000000 -Nl RTR -Nw --- -Ma 0 -Md 0 -Ms 0 -Mt 0 -Is 5.255 -Id -1.255 -It IMEP -Il 56 -If 0 -Ii 25 -Iv 1 -P imep -Pa - -Ph H -Po O -Pl 0x0024 ] 
T 0.201397587 _0_ tora sendQRY 16777221
T 0.201397916 _1_ QRY 83886085 for 5 (rtreq set)
T 0.201397916 _1_ tora sendQRY 83886085
T 0.201397916 _1_ QRY 5 for 5 (rtreq set)
T 0.201397916 _1_ tora sendQRY 5
s -t 0.204128353 -Hs 0 -Hd -2 -Ni 0 -Nx 0.00 -Ny 50.00 -Nz 0.00 -Ne -1.000000 -Nl RTR -Nw --- -Ma 0 -Md 0 -Ms 0 -Mt 0 -Is 0.255 -Id -1.255 -It IMEP -Il 80 -If 0 -Ii 30 -Iv 1 -P imep -Pa A -Ph H -Po O -Pl 0x003c ] 
s -t 0.204800000 -Hs 0 -Hd -2 -Ni 0 -Nx 0.00 -Ny 50.00 -Nz 0.00 -Ne -1.000000 -Nl AGT -Nw --- -Ma 0 -Md 0 -Ms 0 -Mt 0 -Is 0.0 -Id 5.0 -It cbr -Il 512 -If 0 -Ii 31 -Iv 32 -Pn cbr -Pi 10 -Pf 0 -Po 0 
s -t 0.204800000 -Hs 0 -Hd 5 -Ni 0 -Nx 0.00 -Ny 50.00 -Nz 0.00 -Ne -1.000000 -Nl RTR -Nw --- -Ma 0 -Md 0 -Ms 0 -Mt 0 -Is 0.0 -Id 5.0 -It cbr -Il 532 -If 0 -Ii 31 -Iv 32 -Pn cbr -Pi 10 -Pf 0 -Po 0 
T 0.205872853 _5_ tora sendQRY 16777221
T 0.205873020 _1_ QRY 16777221 for 0 (rtreq set)
T 0.205873020 _1_ tora sendQRY 16777221
T 0.205873020 _1_ QRY 83886085 for 0 (rtreq set)
T 0.205873020 _1_ tora sendQRY 83886085
T 0.205873020 _1_ QRY 5 for 0 (rtreq set)
T 0.205873020 _1_ tora sendQRY 5
s -t 0.209796168 -Hs 1 -Hd -2 -Ni 1 -Nx 200.00 -Ny 50.00 -Nz 0.00 -Ne -1.000000 -Nl RTR -Nw --- -Ma 0 -Md 0 -Ms 0 -Mt 0 -Is 1.255 -Id -1.255 -It IMEP -Il 86 -If 0 -Ii 36 -Iv 1 -P imep -Pa - -Ph - -Po O -Pl 0x0042 ] 
r -t 0.211679853 -Hs 5 -Hd 5 -Ni 5 -Nx 1.70 -Ny 200.00 -Nz 0.00 -Ne -1.000000 -Nl AGT -Nw --- -Ma 13a -Md 5 -Ms 0 -Mt 800 -Is 0.0 -Id 5.0 -It cbr -Il 532 -If 0 -Ii 31 -Iv 32 -Pn cbr -Pi 10 -Pf 1 -Po 0 
T 0.213277348 _0_ tora sendQRY 83886085
s -t 0.214383918 -Hs 5 -Hd -2 -Ni 5 -Nx 1.72 -Ny 200.00 -Nz 0.00 -Ne -1.000000 -Nl RTR -Nw --- -Ma 0 -Md 0 -Ms 0 -Mt 0 -Is 5.255 -Id -1.255 -It IMEP -Il 46 -If 0 -Ii 39 -Iv 1 -P imep -Pa - -Ph - -Po O -Pl 0x001a ] 
s -t 0.222151784 -Hs 0 -Hd -2 -Ni 0 -Nx 0.00 -Ny 50.00 -Nz 0.00 -Ne -1.000000 -Nl RTR -Nw --- -Ma 0 -Md 0 -Ms 0 -Mt 0 -Is 0.255 -Id -1.255 -It IMEP -Il 68 -If 0 -Ii 41 -Iv 1 -P imep -Pa A -Ph - -Po O -Pl 0x0030 ] 
s -t 0.225280000 -Hs 0 -Hd -2 -Ni 0 -Nx 0.00 -Ny 50.00 -Nz 0.00 -Ne -1.000000 -Nl AGT -Nw --- -Ma 0 -Md 0 -Ms 0 -Mt 0 -Is 0.0 -Id 5.0 -It cbr -Il 512 -If 0 -Ii 42 -Iv 32 -Pn cbr -Pi 11 -Pf 0 -Po 0 
s -t 0.225280000 -Hs 0 -Hd 5 -Ni 0 -Nx 0.00 -Ny 50.00 -Nz 0.00 -Ne -1.000000 -Nl RTR -Nw --- -Ma 0 -Md 0 -Ms 0 -Mt 0 -Is 0.0 -Id 5.0 -It cbr -Il 532 -If 0 -Ii 42 -Iv 32 -Pn cbr -Pi 11 -Pf 0 -Po 0 
r -t 0.230897500 -Hs 5 -Hd 5 -Ni 5 -Nx 1.85 -Ny 200.00 -Nz 0.00 -Ne -1.000000 -Nl AGT -Nw --- -Ma 13a -Md 5 -Ms 0 -Mt 800 -Is 0.0 -Id 5.0 -It cbr -Il 532 -If 0 -Ii 42 -Iv 32 -Pn cbr -Pi 11 -Pf 1 -Po 0 
s -t 0.245760000 -Hs 0 -Hd -2 -Ni 0 -Nx 0.00 -Ny 50.00 -Nz 0.00 -Ne -1.000000 -Nl AGT -Nw --- -Ma 0 -Md 0 -Ms 0 -Mt 0 -Is 0.0 -Id 5.0 -It cbr -Il 512 -If 0 -Ii 43 -Iv 32 -Pn cbr -Pi 12 -Pf 0 -Po 0 
s -t 0.245760000 -Hs 0 -Hd 5 -Ni 0 -Nx 0.00 -Ny 50.00 -Nz 0.00 -Ne -1.000000 -Nl RTR -Nw --- -Ma 0 -Md 0 -Ms 0 -Mt 0 -Is 0.0 -Id 5.0 -It cbr -Il 532 -If 0 -Ii 43 -Iv 32 -Pn cbr -Pi 12 -Pf 0 -Po 0 
r -t 0.251757500 -Hs 5 -Hd 5 -Ni 5 -Nx 2.02 -Ny 200.00 -Nz 0.00 -Ne -1.000000 -Nl AGT -Nw --- -Ma 13a -Md 5 -Ms 0 -Mt 800 -Is 0.0 -Id 5.0 -It cbr -Il 532 -If 0 -Ii 43 -Iv 32 -Pn cbr -Pi 12 -Pf 1 -Po 0 
s -t 0.266240000 -Hs 0 -Hd -2 -Ni 0 -Nx 0.00 -Ny 50.00 -Nz 0.00 -Ne -1.000000 -Nl AGT -Nw --- -Ma 0 -Md 0 -Ms 0 -Mt 0 -Is 0.0 -Id 5.0 -It cbr -Il 512 -If 0 -Ii 44 -Iv 32 -Pn cbr -Pi 13 -Pf 0 -Po 0 
s -t 0.266240000 -Hs 0 -Hd 5 -Ni 0 -Nx 0.00 -Ny 50.00 -Nz 0.00 -Ne -1.000000 -Nl RTR -Nw --- -Ma 0 -Md 0 -Ms 0 -Mt 0 -Is 0.0 -Id 5.0 -It cbr -Il 532 -If 0 -Ii 44 -Iv 32 -Pn cbr -Pi 13 -Pf 0 -Po 0 
r -t 0.271917500 -Hs 5 -Hd 5 -Ni 5 -Nx 2.18 -Ny 200.00 -Nz 0.00 -Ne -1.000000 -Nl AGT -Nw --- -Ma 13a -Md 5 -Ms 0 -Mt 800 -Is 0.0 -Id 5.0 -It cbr -Il 532 -If 0 -Ii 44 -Iv 32 -Pn cbr -Pi 13 -Pf 1 -Po 0 
s -t 0.286720000 -Hs 0 -Hd -2 -Ni 0 -Nx 0.00 -Ny 50.00 -Nz 0.00 -Ne -1.000000 -Nl AGT -Nw --- -Ma 0 -Md 0 -Ms 0 -Mt 0 -Is 0.0 -Id 5.0 -It cbr -Il 512 -If 0 -Ii 45 -Iv 32 -Pn cbr -Pi 14 -Pf 0 -Po 0 
s -t 0.286720000 -Hs 0 -Hd 5 -Ni 0 -Nx 0.00 -Ny 50.00 -Nz 0.00 -Ne -1.000000 -Nl RTR -Nw --- -Ma 0 -Md 0 -Ms 0 -Mt 0 -Is 0.0 -Id 5.0 -It cbr -Il 532 -If 0 -Ii 45 -Iv 32 -Pn cbr -Pi 14 -Pf 0 -Po 0 
r -t 0.292697500 -Hs 5 -Hd 5 -Ni 5 -Nx 2.34 -Ny 200.00 -Nz 0.00 -Ne -1.000000 -Nl AGT -Nw --- -Ma 13a -Md 5 -Ms 0 -Mt 800 -Is 0.0 -Id 5.0 -It cbr -Il 532 -If 0 -Ii 45 -Iv 32 -Pn cbr -Pi 14 -Pf 1 -Po 0 
s -t 0.307200000 -Hs 0 -Hd -2 -Ni 0 -Nx 0.00 -Ny 50.00 -Nz 0.00 -Ne -1.000000 -Nl AGT -Nw --- -Ma 0 -Md 0 -Ms 0 -Mt 0 -Is 0.0 -Id 5.0 -It cbr -Il 512 -If 0 -Ii 46 -Iv 32 -Pn cbr -Pi 15 -Pf 0 -Po 0 
s -t 0.307200000 -Hs 0 -Hd 5 -Ni 0 -Nx 0.00 -Ny 50.00 -Nz 0.00 -Ne -1.000000 -Nl RTR -Nw --- -Ma 0 -Md 0 -Ms 0 -Mt 0 -Is 0.0 -Id 5.0 -It cbr -Il 532 -If 0 -Ii 46 -Iv 32 -Pn cbr -Pi 15 -Pf 0 -Po 0 
r -t 0.312917500 -Hs 5 -Hd 5 -Ni 5 -Nx 2.51 -Ny 200.00 -Nz 0.00 -Ne -1.000000 -Nl AGT -Nw --- -Ma 13a -Md 5 -Ms 0 -Mt 800 -Is 0.0 -Id 5.0 -It cbr -Il 532 -If 0 -Ii 46 -Iv 32 -Pn cbr -Pi 15 -Pf 1 -Po 0 
s -t 0.327680000 -Hs 0 -Hd -2 -Ni 0 -Nx 0.00 -Ny 50.00 -Nz 0.00 -Ne -1.000000 -Nl AGT -Nw --- -Ma 0 -Md 0 -Ms 0 -Mt 0 -Is 0.0 -Id 5.0 -It cbr -Il 512 -If 0 -Ii 47 -Iv 32 -Pn cbr -Pi 16 -Pf 0 -Po 0 
s -t 0.327680000 -Hs 0 -Hd 5 -Ni 0 -Nx 0.00 -Ny 50.00 -Nz 0.00 -Ne -1.000000 -Nl RTR -Nw --- -Ma 0 -Md 0 -Ms 0 -Mt 0 -Is 0.0 -Id 5.0 -It cbr -Il 532 -If 0 -Ii 47 -Iv 32 -Pn cbr -Pi 16 -Pf 0 -Po 0 
r -t 0.333337500 -Hs 5 -Hd 5 -Ni 5 -Nx 2.67 -Ny 200.00 -Nz 0.00 -Ne -1.000000 -Nl AGT -Nw --- -Ma 13a -Md 5 -Ms 0 -Mt 800 -Is 0.0 -Id 5.0 -It cbr -Il 532 -If 0 -Ii 47 -Iv 32 -Pn cbr -Pi 16 -Pf 1 -Po 0 
s -t 0.348160000 -Hs 0 -Hd -2 -Ni 0 -Nx 0.00 -Ny 50.00 -Nz 0.00 -Ne -1.000000 -Nl AGT -Nw --- -Ma 0 -Md 0 -Ms 0 -Mt 0 -Is 0.0 -Id 5.0 -It cbr -Il 512 -If 0 -Ii 48 -Iv 32 -Pn cbr -Pi 17 -Pf 0 -Po 0 
s -t 0.348160000 -Hs 0 -Hd 5 -Ni 0 -Nx 0.00 -Ny 50.00 -Nz 0.00 -Ne -1.000000 -Nl RTR -Nw --- -Ma 0 -Md 0 -Ms 0 -Mt 0 -Is 0.0 -Id 5.0 -It cbr -Il 532 -If 0 -Ii 48 -Iv 32 -Pn cbr -Pi 17 -Pf 0 -Po 0 
r -t 0.353737500 -Hs 5 -Hd 5 -Ni 5 -Nx 2.83 -Ny 200.00 -Nz 0.00 -Ne -1.000000 -Nl AGT -Nw --- -Ma 13a -Md 5 -Ms 0 -Mt 800 -Is 0.0 -Id 5.0 -It cbr -Il 532 -If 0 -Ii 48 -Iv 32 -Pn cbr -Pi 17 -Pf 1 -Po 0 
s -t 0.368640000 -Hs 0 -Hd -2 -Ni 0 -Nx 0.00 -Ny 50.00 -Nz 0.00 -Ne -1.000000 -Nl AGT -Nw --- -Ma 0 -Md 0 -Ms 0 -Mt 0 -Is 0.0 -Id 5.0 -It cbr -Il 512 -If 0 -Ii 49 -Iv 32 -Pn cbr -Pi 18 -Pf 0 -Po 0 
s -t 0.368640000 -Hs 0 -Hd 5 -Ni 0 -Nx 0.00 -Ny 50.00 -Nz 0.00 -Ne -1.000000 -Nl RTR -Nw --- -Ma 0 -Md 0 -Ms 0 -Mt 0 -Is 0.0 -Id 5.0 -It cbr -Il 532 -If 0 -Ii 49 -Iv 32 -Pn cbr -Pi 18 -Pf 0 -Po 0 
r -t 0.374137500 -Hs 5 -Hd 5 -Ni 5 -Nx 3.00 -Ny 200.00 -Nz 0.00 -Ne -1.000000 -Nl AGT -Nw --- -Ma 13a -Md 5 -Ms 0 -Mt 800 -Is 0.0 -Id 5.0 -It cbr -Il 532 -If 0 -Ii 49 -Iv 32 -Pn cbr -Pi 18 -Pf 1 -Po 0 
s -t 0.380932170 -Hs 2 -Hd -2 -Ni 2 -Nx 400.00 -Ny 50.00 -Nz 0.00 -Ne -1.000000 -Nl RTR -Nw --- -Ma 0 -Md 0 -Ms 0 -Mt 0 -Is 2.255 -Id -1.255 -It IMEP -Il 34 -If 0 -Ii 50 -Iv 1 -P imep -Pa - -Ph H -Po - -Pl 0x000e ] 
T 0.382068837 _1_ QRY 16777221 for 2 (rtreq set)
T 0.382068837 _1_ tora sendQRY 16777221
T 0.382068837 _1_ QRY 83886085 for 2 (rtreq set)
T 0.382068837 _1_ tora sendQRY 83886085
T 0.382068837 _1_ QRY 5 for 2 (rtreq set)
T 0.382068837 _1_ tora sendQRY 5
s -t 0.383856115 -Hs 1 -Hd -2 -Ni 1 -Nx 200.00 -Ny 50.00 -Nz 0.00 -Ne -1.000000 -Nl RTR -Nw --- -Ma 0 -Md 0 -Ms 0 -Mt 0 -Is 1.255 -Id -1.255 -It IMEP -Il 80 -If 0 -Ii 56 -Iv 1 -P imep -Pa - -Ph H -Po O -Pl 0x003c ] 
T 0.385100782 _0_ tora sendQRY 33554437
T 0.385100782 _2_ QRY 16777221 for 1 (rtreq set)
T 0.385100782 _2_ tora sendQRY 16777221
T 0.385100782 _2_ QRY 5 for 1 (rtreq set)
T 0.385100782 _2_ tora sendQRY 5
T 0.385100782 _2_ QRY 83886085 for 1 (rtreq set)
T 0.385100782 _2_ tora sendQRY 83886085
T 0.385100940 _5_ tora sendQRY 33554437
s -t 0.385982783 -Hs 2 -Hd -2 -Ni 2 -Nx 400.00 -Ny 50.00 -Nz 0.00 -Ne -1.000000 -Nl RTR -Nw --- -Ma 0 -Md 0 -Ms 0 -Mt 0 -Is 2.255 -Id -1.255 -It IMEP -Il 62 -If 0 -Ii 63 -Iv 1 -P imep -Pa - -Ph - -Po O -Pl 0x002a ] 
s -t 0.389120000 -Hs 0 -Hd -2 -Ni 0 -Nx 0.00 -Ny 50.00 -Nz 0.00 -Ne -1.000000 -Nl AGT -Nw --- -Ma 0 -Md 0 -Ms 0 -Mt 0 -Is 0.0 -Id 5.0 -It cbr -Il 512 -If 0 -Ii 64 -Iv 32 -Pn cbr -Pi 19 -Pf 0 -Po 0 
s -t 0.389120000 -Hs 0 -Hd 5 -Ni 0 -Nx 0.00 -Ny 50.00 -Nz 0.00 -Ne -1.000000 -Nl RTR -Nw --- -Ma 0 -Md 0 -Ms 0 -Mt 0 -Is 0.0 -Id 5.0 -It cbr -Il 532 -If 0 -Ii 64 -Iv 32 -Pn cbr -Pi 19 -Pf 0 -Po 0 
s -t 0.390429767 -Hs 0 -Hd -2 -Ni 0 -Nx 0.00 -Ny 50.00 -Nz 0.00 -Ne -1.000000 -Nl RTR -Nw --- -Ma 0 -Md 0 -Ms 0 -Mt 0 -Is 0.255 -Id -1.255 -It IMEP -Il 60 -If 0 -Ii 65 -Iv 1 -P imep -Pa A -Ph - -Po O -Pl 0x0028 ] 
s -t 0.393244942 -Hs 5 -Hd -2 -Ni 5 -Nx 3.15 -Ny 200.00 -Nz 0.00 -Ne -1.000000 -Nl RTR -Nw --- -Ma 0 -Md 0 -Ms 0 -Mt 0 -Is 5.255 -Id -1.255 -It IMEP -Il 46 -If 0 -Ii 66 -Iv 1 -P imep -Pa - -Ph - -Po O -Pl 0x001a ] 
r -t 0.395217500 -Hs 5 -Hd 5 -Ni 5 -Nx 3.17 -Ny 200.00 -Nz 0.00 -Ne -1.000000 -Nl AGT -Nw --- -Ma 13a -Md 5 -Ms 0 -Mt 800 -Is 0.0 -Id 5.0 -It cbr -Il 532 -If 0 -Ii 64 -Iv 32 -Pn cbr -Pi 19 -Pf 1 -Po 0 
s -t 0.409600000 -Hs 0 -Hd -2 -Ni 0 -Nx 0.00 -Ny 50.00 -Nz 0.00 -Ne -1.000000 -Nl AGT -Nw --- -Ma 0 -Md 0 -Ms 0 -Mt 0 -Is 0.0 -Id 5.0 -It cbr -Il 512 -If 0 -Ii 68 -Iv 32 -Pn cbr -Pi 20 -Pf 0 -Po 0 
s -t 0.409600000 -Hs 0 -Hd 5 -Ni 0 -Nx 0.00 -Ny 50.00 -Nz 0.00 -Ne -1.000000 -Nl RTR -Nw --- -Ma 0 -Md 0 -Ms 0 -Mt 0 -Is 0.0 -Id 5.0 -It cbr -Il 532 -If 0 -Ii 68 -Iv 32 -Pn cbr -Pi 20 -Pf 0 -Po 0 
r -t 0.415537500 -Hs 5 -Hd 5 -Ni 5 -Nx 3.33 -Ny 200.00 -Nz 0.00 -Ne -1.000000 -Nl AGT -Nw --- -Ma 13a -Md 5 -Ms 0 -Mt 800 -Is 0.0 -Id 5.0 -It cbr -Il 532 -If 0 -Ii 68 -Iv 32 -Pn cbr -Pi 20 -Pf 1 -Po 0 
s -t 0.430080000 -Hs 0 -Hd -2 -Ni 0 -Nx 0.00 -Ny 50.00 -Nz 0.00 -Ne -1.000000 -Nl AGT -Nw --- -Ma 0 -Md 0 -Ms 0 -Mt 0 -Is 0.0 -Id 5.0 -It cbr -Il 512 -If 0 -Ii 69 -Iv 32 -Pn cbr -Pi 21 -Pf 0 -Po 0 
s -t 0.430080000 -Hs 0 -Hd 5 -Ni 0 -Nx 0.00 -Ny 50.00 -Nz 0.00 -Ne -1.000000 -Nl RTR -Nw --- -Ma 0 -Md 0 -Ms 0 -Mt 0 -Is 0.0 -Id 5.0 -It cbr -Il 532 -If 0 -Ii 69 -Iv 32 -Pn cbr -Pi 21 -Pf 0 -Po 0 
r -t 0.435877500 -Hs 5 -Hd 5 -Ni 5 -Nx 3.49 -Ny 200.00 -Nz 0.00 -Ne -1.000000 -Nl AGT -Nw --- -Ma 13a -Md 5 -Ms 0 -Mt 800 -Is 0.0 -Id 5.0 -It cbr -Il 532 -If 0 -Ii 69 -Iv 32 -Pn cbr -Pi 21 -Pf 1 -Po 0 
s -t 0.450560000 -Hs 0 -Hd -2 -Ni 0 -Nx 0.00 -Ny 50.00 -Nz 0.00 -Ne -1.000000 -Nl AGT -Nw --- -Ma 0 -Md 0 -Ms 0 -Mt 0 -Is 0.0 -Id 5.0 -It cbr -Il 512 -If 0 -Ii 70 -Iv 32 -Pn cbr -Pi 22 -Pf 0 -Po 0 
s -t 0.450560000 -Hs 0 -Hd 5 -Ni 0 -Nx 0.00 -Ny 50.00 -Nz 0.00 -Ne -1.000000 -Nl RTR -Nw --- -Ma 0 -Md 0 -Ms 0 -Mt 0 -Is 0.0 -Id 5.0 -It cbr -Il 532 -If 0 -Ii 70 -Iv 32 -Pn cbr -Pi 22 -Pf 0 -Po 0 
r -t 0.456357500 -Hs 5 -Hd 5 -Ni 5 -Nx 3.66 -Ny 200.00 -Nz 0.00 -Ne -1.000000 -Nl AGT -Nw --- -Ma 13a -Md 5 -Ms 0 -Mt 800 -Is 0.0 -Id 5.0 -It cbr -Il 532 -If 0 -Ii 70 -Iv 32 -Pn cbr -Pi 22 -Pf 1 -Po 0 
s -t 0.471040000 -Hs 0 -Hd -2 -Ni 0 -Nx 0.00 -Ny 50.00 -Nz 0.00 -Ne -1.000000 -Nl AGT -Nw --- -Ma 0 -Md 0 -Ms 0 -Mt 0 -Is 0.0 -Id 5.0 -It cbr -Il 512 -If 0 -Ii 71 -Iv 32 -Pn cbr -Pi 23 -Pf 0 -Po 0 
s -t 0.471040000 -Hs 0 -Hd 5 -Ni 0 -Nx 0.00 -Ny 50.00 -Nz 0.00 -Ne -1.000000 -Nl RTR -Nw --- -Ma 0 -Md 0 -Ms 0 -Mt 0 -Is 0.0 -Id 5.0 -It cbr -Il 532 -If 0 -Ii 71 -Iv 32 -Pn cbr -Pi 23 -Pf 0 -Po 0 
r -t 0.476577500 -Hs 5 -Hd 5 -Ni 5 -Nx 3.82 -Ny 200.00 -Nz 0.00 -Ne -1.000000 -Nl AGT -Nw --- -Ma 13a -Md 5 -Ms 0 -Mt 800 -Is 0.0 -Id 5.0 -It cbr -Il 532 -If 0 -Ii 71 -Iv 32 -Pn cbr -Pi 23 -Pf 1 -Po 0 
s -t 0.491520000 -Hs 0 -Hd -2 -Ni 0 -Nx 0.00 -Ny 50.00 -Nz 0.00 -Ne -1.000000 -Nl AGT -Nw --- -Ma 0 -Md 0 -Ms 0 -Mt 0 -Is 0.0 -Id 5.0 -It cbr -Il 512 -If 0 -Ii 72 -Iv 32 -Pn cbr -Pi 24 -Pf 0 -Po 0 
s -t 0.491520000 -Hs 0 -Hd 5 -Ni 0 -Nx 0.00 -Ny 50.00 -Nz 0.00 -Ne -1.000000 -Nl RTR -Nw --- -Ma 0 -Md 0 -Ms 0 -Mt 0 -Is 0.0 -Id 5.0 -It cbr -Il 532 -If 0 -Ii 72 -Iv 32 -Pn cbr -Pi 24 -Pf 0 -Po 0 
r -t 0.497237501 -Hs 5 -Hd 5 -Ni 5 -Nx 3.98 -Ny 200.00 -Nz 0.00 -Ne -1.000000 -Nl AGT -Nw --- -Ma 13a -Md 5 -Ms 0 -Mt 800 -Is 0.0 -Id 5.0 -It cbr -Il 532 -If 0 -Ii 72 -Iv 32 -Pn cbr -Pi 24 -Pf 1 -Po 0 
s -t 0.512000000 -Hs 0 -Hd -2 -Ni 0 -Nx 0.00 -Ny 50.00 -Nz 0.00 -Ne -1.000000 -Nl AGT -Nw --- -Ma 0 -Md 0 -Ms 0 -Mt 0 -Is 0.0 -Id 5.0 -It cbr -Il 512 -If 0 -Ii 73 -Iv 32 -Pn cbr -Pi 25 -Pf 0 -Po 0 
s -t 0.512000000 -Hs 0 -Hd 5 -Ni 0 -Nx 0.00 -Ny 50.00 -Nz 0.00 -Ne -1.000000 -Nl RTR -Nw --- -Ma 0 -Md 0 -Ms 0 -Mt 0 -Is 0.0 -Id 5.0 -It cbr -Il 532 -If 0 -Ii 73 -Iv 32 -Pn cbr -Pi 25 -Pf 0 -Po 0 
r -t 0.517657501 -Hs 5 -Hd 5 -Ni 5 -Nx 4.15 -Ny 200.00 -Nz 0.00 -Ne -1.000000 -Nl AGT -Nw --- -Ma 13a -Md 5 -Ms 0 -Mt 800 -Is 0.0 -Id 5.0 -It cbr -Il 532 -If 0 -Ii 73 -Iv 32 -Pn cbr -Pi 25 -Pf 1 -Po 0 
s -t 0.532480000 -Hs 0 -Hd -2 -Ni 0 -Nx 0.00 -Ny 50.00 -Nz 0.00 -Ne -1.000000 -Nl AGT -Nw --- -Ma 0 -Md 0 -Ms 0 -Mt 0 -Is 0.0 -Id 5.0 -It cbr -Il 512 -If 0 -Ii 74 -Iv 32 -Pn cbr -Pi 26 -Pf 0 -Po 0 
s -t 0.532480000 -Hs 0 -Hd 5 -Ni 0 -Nx 0.00 -Ny 50.00 -Nz 0.00 -Ne -1.000000 -Nl RTR -Nw --- -Ma 0 -Md 0 -Ms 0 -Mt 0 -Is 0.0 -Id 5.0 -It cbr -Il 532 -If 0 -Ii 74 -Iv 32 -Pn cbr -Pi 26 -Pf 0 -Po 0 
r -t 0.538377501 -Hs 5 -Hd 5 -Ni 5 -Nx 4.31 -Ny 200.00 -Nz 0.00 -Ne -1.000000 -Nl AGT -Nw --- -Ma 13a -Md 5 -Ms 0 -Mt 800 -Is 0.0 -Id 5.0 -It cbr -Il 532 -If 0 -Ii 74 -Iv 32 -Pn cbr -Pi 26 -Pf 1 -Po 0 
s -t 0.541204528 -Hs 3 -Hd -2 -Ni 3 -Nx 600.00 -Ny 50.00 -Nz 0.00 -Ne -1.000000 -Nl RTR -Nw --- -Ma 0 -Md 0 -Ms 0 -Mt 0 -Is 3.255 -Id -1.255 -It IMEP -Il 34 -If 0 -Ii 75 -Iv 1 -P imep -Pa - -Ph H -Po - -Pl 0x000e ] 
T 0.542201195 _2_ QRY 33554437 for 3 (rtreq set)
T 0.542201195 _2_ tora sendQRY 33554437
T 0.542201195 _2_ QRY 16777221 for 3 (rtreq set)
T 0.542201195 _2_ tora sendQRY 16777221
T 0.542201195 _2_ QRY 5 for 3 (rtreq set)
T 0.542201195 _2_ tora sendQRY 5
T 0.542201195 _2_ QRY 83886085 for 3 (rtreq set)
T 0.542201195 _2_ tora sendQRY 83886085
s -t 0.543913385 -Hs 2 -Hd -2 -Ni 2 -Nx 400.00 -Ny 50.00 -Nz 0.00 -Ne -1.000000 -Nl RTR -Nw --- -Ma 0 -Md 0 -Ms 0 -Mt 0 -Is 2.255 -Id -1.255 -It IMEP -Il 86 -If 0 -Ii 82 -Iv 1 -P imep -Pa - -Ph H -Po O -Pl 0x0042 ] 
T 0.545486052 _1_ tora sendQRY 33554437
T 0.545486052 _1_ tora sendQRY 50331653
T 0.545486052 _3_ QRY 5 for 2 (rtreq set)
T 0.545486052 _3_ tora sendQRY 5
T 0.545486052 _3_ QRY 16777221 for 2 (rtreq set)
T 0.545486052 _3_ tora sendQRY 16777221
s -t 0.547562203 -Hs 3 -Hd -2 -Ni 3 -Nx 600.00 -Ny 50.00 -Nz 0.00 -Ne -1.000000 -Nl RTR -Nw --- -Ma 0 -Md 0 -Ms 0 -Mt 0 -Is 3.255 -Id -1.255 -It IMEP -Il 52 -If 0 -Ii 87 -Iv 1 -P imep -Pa - -Ph - -Po O -Pl 0x0020 ] 
s -t 0.550693520 -Hs 1 -Hd -2 -Ni 1 -Nx 200.00 -Ny 50.00 -Nz 0.00 -Ne -1.000000 -Nl RTR -Nw --- -Ma 0 -Md 0 -Ms 0 -Mt 0 -Is 1.255 -Id -1.255 -It IMEP -Il 60 -If 0 -Ii 88 -Iv 1 -P imep -Pa - -Ph - -Po O -Pl 0x0028 ] 
s -t 0.552960000 -Hs 0 -Hd -2 -Ni 0 -Nx 0.00 -Ny 50.00 -Nz 0.00 -Ne -1.000000 -Nl AGT -Nw --- -Ma 0 -Md 0 -Ms 0 -Mt 0 -Is 0.0 -Id 5.0 -It cbr -Il 512 -If 0 -Ii 90 -Iv 32 -Pn cbr -Pi 27 -Pf 0 -Po 0 
s -t 0.552960000 -Hs 0 -Hd 5 -Ni 0 -Nx 0.00 -Ny 50.00 -Nz 0.00 -Ne -1.000000 -Nl RTR -Nw --- -Ma 0 -Md 0 -Ms 0 -Mt 0 -Is 0.0 -Id 5.0 -It cbr -Il 532 -If 0 -Ii 90 -Iv 32 -Pn cbr -Pi 27 -Pf 0 -Po 0 
r -t 0.558477501 -Hs 5 -Hd 5 -Ni 5 -Nx 4.47 -Ny 200.00 -Nz 0.00 -Ne -1.000000 -Nl AGT -Nw --- -Ma 13a -Md 5 -Ms 0 -Mt 800 -Is 0.0 -Id 5.0 -It cbr -Il 532 -If 0 -Ii 90 -Iv 32 -Pn cbr -Pi 27 -Pf 1 -Po 0 
s -t 0.573440000 -Hs 0 -Hd -2 -Ni 0 -Nx 0.00 -Ny 50.00 -Nz 0.00 -Ne -1.000000 -Nl AGT -Nw --- -Ma 0 -Md 0 -Ms 0 -Mt 0 -Is 0.0 -Id 5.0 -It cbr -Il 512 -If 0 -Ii 91 -Iv 32 -Pn cbr -Pi 28 -Pf 0 -Po 0 
s -t 0.573440000 -Hs 0 -Hd 5 -Ni 0 -Nx 0.00 -Ny 50.00 -Nz 0.00 -Ne -1.000000 -Nl RTR -Nw --- -Ma 0 -Md 0 -Ms 0 -Mt 0 -Is 0.0 -Id 5.0 -It cbr -Il 532 -If 0 -Ii 91 -Iv 32 -Pn cbr -Pi 28 -Pf 0 -Po 0 
r -t 0.578997501 -Hs 5 -Hd 5 -Ni 5 -Nx 4.64 -Ny 200.00 -Nz 0.00 -Ne -1.000000 -Nl AGT -Nw --- -Ma 13a -Md 5 -Ms 0 -Mt 800 -Is 0.0 -Id 5.0 -It cbr -Il 532 -If 0 -Ii 91 -Iv 32 -Pn cbr -Pi 28 -Pf 1 -Po 0 
s -t 0.593920000 -Hs 0 -Hd -2 -Ni 0 -Nx 0.00 -Ny 50.00 -Nz 0.00 -Ne -1.000000 -Nl AGT -Nw --- -Ma 0 -Md 0 -Ms 0 -Mt 0 -Is 0.0 -Id 5.0 -It cbr -Il 512 -If 0 -Ii 92 -Iv 32 -Pn cbr -Pi 29 -Pf 0 -Po 0 
s -t 0.593920000 -Hs 0 -Hd 5 -Ni 0 -Nx 0.00 -Ny 50.00 -Nz 0.00 -Ne -1.000000 -Nl RTR -Nw --- -Ma 0 -Md 0 -Ms 0 -Mt 0 -Is 0.0 -Id 5.0 -It cbr -Il 532 -If 0 -Ii 92 -Iv 32 -Pn cbr -Pi 29 -Pf 0 -Po 0 
r -t 0.599437501 -Hs 5 -Hd 5 -Ni 5 -Nx 4.80 -Ny 200.00 -Nz 0.00 -Ne -1.000000 -Nl AGT -Nw --- -Ma 13a -Md 5 -Ms 0 -Mt 800 -Is 0.0 -Id 5.0 -It cbr -Il 532 -If 0 -Ii 92 -Iv 32 -Pn cbr -Pi 29 -Pf 1 -Po 0 
s -t 0.603369859 -Hs 0 -Hd -2 -Ni 0 -Nx 0.00 -Ny 50.00 -Nz 0.00 -Ne -1.000000 -Nl RTR -Nw --- -Ma 0 -Md 0 -Ms 0 -Mt 0 -Is 0.255 -Id -1.255 -It IMEP -Il 46 -If 0 -Ii 93 -Iv 1 -P imep -Pa A -Ph - -Po - -Pl 0x001a ] 
s -t 0.614400000 -Hs 0 -Hd -2 -Ni 0 -Nx 0.00 -Ny 50.00 -Nz 0.00 -Ne -1.000000 -Nl AGT -Nw --- -Ma 0 -Md 0 -Ms 0 -Mt 0 -Is 0.0 -Id 5.0 -It cbr -Il 512 -If 0 -Ii 94 -Iv 32 -Pn cbr -Pi 30 -Pf 0 -Po 0 
s -t 0.614400000 -Hs 0 -Hd 5 -Ni 0 -Nx 0.00 -Ny 50.00 -Nz 0.00 -Ne -1.000000 -Nl RTR -Nw --- -Ma 0 -Md 0 -Ms 0 -Mt 0 -Is 0.0 -Id 5.0 -It cbr -Il 532 -If 0 -Ii 94 -Iv 32 -Pn cbr -Pi 30 -Pf 0 -Po 0 
r -t 0.620277501 -Hs 5 -Hd 5 -Ni 5 -Nx 4.97 -Ny 200.00 -Nz 0.00 -Ne -1.000000 -Nl AGT -Nw --- -Ma 13a -Md 5 -Ms 0 -Mt 800 -Is 0.0 -Id 5.0 -It cbr -Il 532 -If 0 -Ii 94 -Iv 32 -Pn cbr -Pi 30 -Pf 1 -Po 0 
s -t 0.634880000 -Hs 0 -Hd -2 -Ni 0 -Nx 0.00 -Ny 50.00 -Nz 0.00 -Ne -1.000000 -Nl AGT -Nw --- -Ma 0 -Md 0 -Ms 0 -Mt 0 -Is 0.0 -Id 5.0 -It cbr -Il 512 -If 0 -Ii 95 -Iv 32 -Pn cbr -Pi 31 -Pf 0 -Po 0 
s -t 0.634880000 -Hs 0 -Hd 5 -Ni 0 -Nx 0.00 -Ny 50.00 -Nz 0.00 -Ne -1.000000 -Nl RTR -Nw --- -Ma 0 -Md 0 -Ms 0 -Mt 0 -Is 0.0 -Id 5.0 -It cbr -Il 532 -If 0 -Ii 95 -Iv 32 -Pn cbr -Pi 31 -Pf 0 -Po 0 
r -t 0.640697501 -Hs 5 -Hd 5 -Ni 5 -Nx 5.13 -Ny 200.00 -Nz 0.00 -Ne -1.000000 -Nl AGT -Nw --- -Ma 13a -Md 5 -Ms 0 -Mt 800 -Is 0.0 -Id 5.0 -It cbr -Il 532 -If 0 -Ii 95 -Iv 32 -Pn cbr -Pi 31 -Pf 1 -Po 0 
s -t 0.655360000 -Hs 0 -Hd -2 -Ni 0 -Nx 0.00 -Ny 50.00 -Nz 0.00 -Ne -1.000000 -Nl AGT -Nw --- -Ma 0 -Md 0 -Ms 0 -Mt 0 -Is 0.0 -Id 5.0 -It cbr -Il 512 -If 0 -Ii 96 -Iv 32 -Pn cbr -Pi 32 -Pf 0 -Po 0 
s -t 0.655360000 -Hs 0 -Hd 5 -Ni 0 -Nx 0.00 -Ny 50.00 -Nz 0.00 -Ne -1.000000 -Nl RTR -Nw --- -Ma 0 -Md 0 -Ms 0 -Mt 0 -Is 0.0 -Id 5.0 -It cbr -Il 532 -If 0 -Ii 96 -Iv 32 -Pn cbr -Pi 32 -Pf 0 -Po 0 
r -t 0.661397501 -Hs 5 -Hd 5 -Ni 5 -Nx 5.30 -Ny 200.00 -Nz 0.00 -Ne -1.000000 -Nl AGT -Nw --- -Ma 13a -Md 5 -Ms 0 -Mt 800 -Is 0.0 -Id 5.0 -It cbr -Il 532 -If 0 -Ii 96 -Iv 32 -Pn cbr -Pi 32 -Pf 1 -Po 0 
s -t 0.662906680 -Hs 0 -Hd -2 -Ni 0 -Nx 0.00 -Ny 50.00 -Nz 0.00 -Ne -1.000000 -Nl RTR -Nw --- -Ma 0 -Md 0 -Ms 0 -Mt 0 -Is 0.255 -Id -1.255 -It IMEP -Il 42 -If 0 -Ii 97 -Iv 1 -P imep -Pa - -Ph - -Po O -Pl 0x0016 ] 
s -t 0.675840000 -Hs 0 -Hd -2 -Ni 0 -Nx 0.00 -Ny 50.00 -Nz 0.00 -Ne -1.000000 -Nl AGT -Nw --- -Ma 0 -Md 0 -Ms 0 -Mt 0 -Is 0.0 -Id 5.0 -It cbr -Il 512 -If 0 -Ii 98 -Iv 32 -Pn cbr -Pi 33 -Pf 0 -Po 0 
s -t 0.675840000 -Hs 0 -Hd 5 -Ni 0 -Nx 0.00 -Ny 50.00 -Nz 0.00 -Ne -1.000000 -Nl RTR -Nw --- -Ma 0 -Md 0 -Ms 0 -Mt 0 -Is 0.0 -Id 5.0 -It cbr -Il 532 -If 0 -Ii 98 -Iv 32 -Pn cbr -Pi 33 -Pf 0 -Po 0 
r -t 0.681337501 -Hs 5 -Hd 5 -Ni 5 -Nx 5.46 -Ny 200.00 -Nz 0.00 -Ne -1.000000 -Nl AGT -Nw --- -Ma 13a -Md 5 -Ms 0 -Mt 800 -Is 0.0 -Id 5.0 -It cbr -Il 532 -If 0 -Ii 98 -Iv 32 -Pn cbr -Pi 33 -Pf 1 -Po 0 
s -t 0.695395338 -Hs 4 -Hd -2 -Ni 4 -Nx 800.00 -Ny 50.00 -Nz 0.00 -Ne -1.000000 -Nl RTR -Nw --- -Ma 0 -Md 0 -Ms 0 -Mt 0 -Is 4.255 -Id -1.255 -It IMEP -Il 34 -If 0 -Ii 99 -Iv 1 -P imep -Pa - -Ph H -Po - -Pl 0x000e ] 
T 0.696232004 _3_ QRY 50331653 for 4 (rtreq set)
T 0.696232004 _3_ tora sendQRY 50331653
T 0.696232004 _3_ QRY 33554437 for 4 (rtreq set)
T 0.696232004 _3_ tora sendQRY 33554437
T 0.696232004 _3_ QRY 5 for 4 (rtreq set)
T 0.696232004 _3_ tora sendQRY 5
T 0.696232004 _3_ QRY 16777221 for 4 (rtreq set)
T 0.696232004 _3_ tora sendQRY 16777221
s -t 0.696320000 -Hs 0 -Hd -2 -Ni 0 -Nx 0.00 -Ny 50.00 -Nz 0.00 -Ne -1.000000 -Nl AGT -Nw --- -Ma 0 -Md 0 -Ms 0 -Mt 0 -Is 0.0 -Id 5.0 -It cbr -Il 512 -If 0 -Ii 105 -Iv 32 -Pn cbr -Pi 34 -Pf 0 -Po 0 
s -t 0.696320000 -Hs 0 -Hd 5 -Ni 0 -Nx 0.00 -Ny 50.00 -Nz 0.00 -Ne -1.000000 -Nl RTR -Nw --- -Ma 0 -Md 0 -Ms 0 -Mt 0 -Is 0.0 -Id 5.0 -It cbr -Il 532 -If 0 -Ii 105 -Iv 32 -Pn cbr -Pi 34 -Pf 0 -Po 0 
s -t 0.696818983 -Hs 3 -Hd -2 -Ni 3 -Nx 600.00 -Ny 50.00 -Nz 0.00 -Ne -1.000000 -Nl RTR -Nw --- -Ma 0 -Md 0 -Ms 0 -Mt 0 -Is 3.255 -Id -1.255 -It IMEP -Il 86 -If 0 -Ii 106 -Iv 1 -P imep -Pa - -Ph H -Po O -Pl 0x0042 ] 
T 0.698311650 _4_ QRY 33554437 for 3 (rtreq set)
T 0.698311650 _4_ tora sendQRY 33554437
T 0.698311650 _4_ QRY 5 for 3 (rtreq set)
T 0.698311650 _4_ tora sendQRY 5
s -t 0.700145087 -Hs 5 -Hd -2 -Ni 5 -Nx 5.61 -Ny 200.00 -Nz 0.00 -Ne -1.000000 -Nl RTR -Nw --- -Ma 0 -Md 0 -Ms 0 -Mt 0 -Is 5.255 -Id -1.255 -It IMEP -Il 42 -If 0 -Ii 109 -Iv 1 -P imep -Pa - -Ph - -Po O -Pl 0x0016 ] 
r -t 0.701957501 -Hs 5 -Hd 5 -Ni 5 -Nx 5.62 -Ny 200.00 -Nz 0.00 -Ne -1.000000 -Nl AGT -Nw --- -Ma 13a -Md 5 -Ms 0 -Mt 800 -Is 0.0 -Id 5.0 -It cbr -Il 532 -If 0 -Ii 105 -Iv 32 -Pn cbr -Pi 34 -Pf 1 -Po 0 
s -t 0.702911388 -Hs 4 -Hd -2 -Ni 4 -Nx 800.00 -Ny 50.00 -Nz 0.00 -Ne -1.000000 -Nl RTR -Nw --- -Ma 0 -Md 0 -Ms 0 -Mt 0 -Is 4.255 -Id -1.255 -It IMEP -Il 52 -If 0 -Ii 110 -Iv 1 -P imep -Pa - -Ph - -Po O -Pl 0x0020 ] 
s -t 0.704128353 -Hs 0 -Hd -2 -Ni 0 -Nx 0.00 -Ny 50.00 -Nz 0.00 -Ne -1.000000 -Nl RTR -Nw --- -Ma 0 -Md 0 -Ms 0 -Mt 0 -Is 0.255 -Id -1.255 -It IMEP -Il 56 -If 0 -Ii 112 -Iv 1 -P imep -Pa - -Ph - -Po O -Pl 0x0024 ] 
s -t 0.709796168 -Hs 1 -Hd -2 -Ni 1 -Nx 200.00 -Ny 50.00 -Nz 0.00 -Ne -1.000000 -Nl RTR -Nw --- -Ma 0 -Md 0 -Ms 0 -Mt 0 -Is 1.255 -Id -1.255 -It IMEP -Il 82 -If 0 -Ii 113 -Iv 1 -P imep -Pa - -Ph - -Po O -Pl 0x003e ] 
s -t 0.714383918 -Hs 5 -Hd -2 -Ni 5 -Nx 5.72 -Ny 200.00 -Nz 0.00 -Ne -1.000000 -Nl RTR -Nw --- -Ma 0 -Md 0 -Ms 0 -Mt 0 -Is 5.255 -Id -1.255 -It IMEP -Il 42 -If 0 -Ii 115 -Iv 1 -P imep -Pa - -Ph - -Po O -Pl 0x0016 ] 
s -t 0.716800000 -Hs 0 -Hd -2 -Ni 0 -Nx 0.00 -Ny 50.00 -Nz 0.00 -Ne -1.000000 -Nl AGT -Nw --- -Ma 0 -Md 0 -Ms 0 -Mt 0 -Is 0.0 -Id 5.0 -It cbr -Il 512 -If 0 -Ii 117 -Iv 32 -Pn cbr -Pi 35 -Pf 0 -Po 0 
s -t 0.716800000 -Hs 0 -Hd 5 -Ni 0 -Nx 0.00 -Ny 50.00 -Nz 0.00 -Ne -1.000000 -Nl RTR -Nw --- -Ma 0 -Md 0 -Ms 0 -Mt 0 -Is 0.0 -Id 5.0 -It cbr -Il 532 -If 0 -Ii 117 -Iv 32 -Pn cbr -Pi 35 -Pf 0 -Po 0 
s -t 0.722151784 -Hs 0 -Hd -2 -Ni 0 -Nx 0.00 -Ny 50.00 -Nz 0.00 -Ne -1.000000 -Nl RTR -Nw --- -Ma 0 -Md 0 -Ms 0 -Mt 0 -Is 0.255 -Id -1.255 -It IMEP -Il 46 -If 0 -Ii 118 -Iv 1 -P imep -Pa - -Ph - -Po O -Pl 0x001a ] 
r -t 0.722837501 -Hs 5 -Hd 5 -Ni 5 -Nx 5.79 -Ny 200.00 -Nz 0.00 -Ne -1.000000 -Nl AGT -Nw --- -Ma 13a -Md 5 -Ms 0 -Mt 800 -Is 0.0 -Id 5.0 -It cbr -Il 532 -If 0 -Ii 117 -Iv 32 -Pn cbr -Pi 35 -Pf 1 -Po 0 
s -t 0.737280000 -Hs 0 -Hd -2 -Ni 0 -Nx 0.00 -Ny 50.00 -Nz 0.00 -Ne -1.000000 -Nl AGT -Nw --- -Ma 0 -Md 0 -Ms 0 -Mt 0 -Is 0.0 -Id 5.0 -It cbr -Il 512 -If 0 -Ii 119 -Iv 32 -Pn cbr -Pi 36 -Pf 0 -Po 0 
s -t 0.737280000 -Hs 0 -Hd 5 -Ni 0 -Nx 0.00 -Ny 50.00 -Nz 0.00 -Ne -1.000000 -Nl RTR -Nw --- -Ma 0 -Md 0 -Ms 0 -Mt 0 -Is 0.0 -Id 5.0 -It cbr -Il 532 -If 0 -Ii 119 -Iv 32 -Pn cbr -Pi 36 -Pf 0 -Po 0 
r -t 0.743137501 -Hs 5 -Hd 5 -Ni 5 -Nx 5.95 -Ny 200.00 -Nz 0.00 -Ne -1.000000 -Nl AGT -Nw --- -Ma 13a -Md 5 -Ms 0 -Mt 800 -Is 0.0 -Id 5.0 -It cbr -Il 532 -If 0 -Ii 119 -Iv 32 -Pn cbr -Pi 36 -Pf 1 -Po 0 
s -t 0.757760000 -Hs 0 -Hd -2 -Ni 0 -Nx 0.00 -Ny 50.00 -Nz 0.00 -Ne -1.000000 -Nl AGT -Nw --- -Ma 0 -Md 0 -Ms 0 -Mt 0 -Is 0.0 -Id 5.0 -It cbr -Il 512 -If 0 -Ii 120 -Iv 32 -Pn cbr -Pi 37 -Pf 0 -Po 0 
s -t 0.757760000 -Hs 0 -Hd 5 -Ni 0 -Nx 0.00 -Ny 50.00 -Nz 0.00 -Ne -1.000000 -Nl RTR -Nw --- -Ma 0 -Md 0 -Ms 0 -Mt 0 -Is 0.0 -Id 5.0 -It cbr -Il 532 -If 0 -Ii 120 -Iv 32 -Pn cbr -Pi 37 -Pf 0 -Po 0 
r -t 0.763337501 -Hs 5 -Hd 5 -Ni 5 -Nx 6.11 -Ny 200.00 -Nz 0.00 -Ne -1.000000 -Nl AGT -Nw --- -Ma 13a -Md 5 -Ms 0 -Mt 800 -Is 0.0 -Id 5.0 -It cbr -Il 532 -If 0 -Ii 120 -Iv 32 -Pn cbr -Pi 37 -Pf 1 -Po 0 
s -t 0.778240000 -Hs 0 -Hd -2 -Ni 0 -Nx 0.00 -Ny 50.00 -Nz 0.00 -Ne -1.000000 -Nl AGT -Nw --- -Ma 0 -Md 0 -Ms 0 -Mt 0 -Is 0.0 -Id 5.0 -It cbr -Il 512 -If 0 -Ii 121 -Iv 32 -Pn cbr -Pi 38 -Pf 0 -Po 0 
s -t 0.778240000 -Hs 0 -Hd 5 -Ni 0 -Nx 0.00 -Ny 50.00 -Nz 0.00 -Ne -1.000000 -Nl RTR -Nw --- -Ma 0 -Md 0 -Ms 0 -Mt 0 -Is 0.0 -Id 5.0 -It cbr -Il 532 -If 0 -Ii 121 -Iv 32 -Pn cbr -Pi 38 -Pf 0 -Po 0 
r -t 0.784037501 -Hs 5 -Hd 5 -Ni 5 -Nx 6.28 -Ny 200.00 -Nz 0.00 -Ne -1.000000 -Nl AGT -Nw --- -Ma 13a -Md 5 -Ms 0 -Mt 800 -Is 0.0 -Id 5.0 -It cbr -Il 532 -If 0 -Ii 121 -Iv 32 -Pn cbr -Pi 38 -Pf 1 -Po 0 
s -t 0.798720000 -Hs 0 -Hd -2 -Ni 0 -Nx 0.00 -Ny 50.00 -Nz 0.00 -Ne -1.000000 -Nl AGT -Nw --- -Ma 0 -Md 0 -Ms 0 -Mt 0 -Is 0.0 -Id 5.0 -It cbr -Il 512 -If 0 -Ii 122 -Iv 32 -Pn cbr -Pi 39 -Pf 0 -Po 0 
s -t 0.798720000 -Hs 0 -Hd 5 -Ni 0 -Nx 0.00 -Ny 50.00 -Nz 0.00 -Ne -1.000000 -Nl RTR -Nw --- -Ma 0 -Md 0 -Ms 0 -Mt 0 -Is 0.0 -Id 5.0 -It cbr -Il 532 -If 0 -Ii 122 -Iv 32 -Pn cbr -Pi 39 -Pf 0 -Po 0 
r -t 0.804537501 -Hs 5 -Hd 5 -Ni 5 -Nx 6.44 -Ny 200.00 -Nz 0.00 -Ne -1.000000 -Nl AGT -Nw --- -Ma 13a -Md 5 -Ms 0 -Mt 800 -Is 0.0 -Id 5.0 -It cbr -Il 532 -If 0 -Ii 122 -Iv 32 -Pn cbr -Pi 39 -Pf 1 -Po 0 
s -t 0.819200000 -Hs 0 -Hd -2 -Ni 0 -Nx 0.00 -Ny 50.00 -Nz 0.00 -Ne -1.000000 -Nl AGT -Nw --- -Ma 0 -Md 0 -Ms 0 -Mt 0 -Is 0.0 -Id 5.0 -It cbr -Il 512 -If 0 -Ii 123 -Iv 32 -Pn cbr -Pi 40 -Pf 0 -Po 0 
s -t 0.819200000 -Hs 0 -Hd 5 -Ni 0 -Nx 0.00 -Ny 50.00 -Nz 0.00 -Ne -1.000000 -Nl RTR -Nw --- -Ma 0 -Md 0 -Ms 0 -Mt 0 -Is 0.0 -Id 5.0 -It cbr -Il 532 -If 0 -Ii 123 -Iv 32 -Pn cbr -Pi 40 -Pf 0 -Po 0 