n -t * -s 0  -x 0 -y 50 -Z 0 -z 10  -v circle -c black
n -t * -s 1  -x 200 -y 50 -Z 0 -z 10  -v circle -c black
n -t * -s 2  -x 400 -y 50 -Z 0 -z 10  -v circle -c black
n -t * -s 3  -x 600 -y 50 -Z 0 -z 10  -v circle -c black
n -t * -s 4  -x 800 -y 50 -Z 0 -z 10  -v circle -c black
n -t * -s 5  -x 0 -y 200 -Z 0 -z 20  -v circle -c black
V -t * -v 1.0a5 -a 0
W -t * -x 801 -y 300
A -t * -n 1 -p 0 -o 0x7fffffff -c 30 -a 1
A -t * -h 1 -m 1073741823 -s 0
n -t 0.000000 -s 5 -x 0.000000 -y 200.000000 -U 8.010000 -V 0.000000 -T 99.875156
+ -t 0.000000000 -s 0 -d -1 -p cbr -e 512 -c 2 -a 0 -i 0 -k AGT 
- -t 0.000000000 -s 0 -d -1 -p cbr -e 512 -c 2 -a 0 -i 0 -k AGT
h -t 0.000000000 -s 0 -d -1 -p cbr -e 512 -c 2 -a 0 -i 0 -k AGT
n -t 0 -s 5 -S COLOR -c blue -o blue -i blue -I blue
+ -t 0.000003396 -s 0 -d -1 -p IMEP -e 38 -c 2 -a 0 -i 2 -k RTR 
- -t 0.000003396 -s 0 -d -1 -p IMEP -e 38 -c 2 -a 0 -i 2 -k RTR
h -t 0.000003396 -s 0 -d -1 -p IMEP -e 38 -c 2 -a 0 -i 2 -k RTR
+ -t 0.020480000 -s 0 -d -1 -p cbr -e 512 -c 2 -a 0 -i 5 -k AGT 
- -t 0.020480000 -s 0 -d -1 -p cbr -e 512 -c 2 -a 0 -i 5 -k AGT
h -t 0.020480000 -s 0 -d -1 -p cbr -e 512 -c 2 -a 0 -i 5 -k AGT
+ -t 0.040960000 -s 0 -d -1 -p cbr -e 512 -c 2 -a 0 -i 6 -k AGT 
- -t 0.040960000 -s 0 -d -1 -p cbr -e 512 -c 2 -a 0 -i 6 -k AGT
h -t 0.040960000 -s 0 -d -1 -p cbr -e 512 -c 2 -a 0 -i 6 -k AGT
+ -t 0.061440000 -s 0 -d -1 -p cbr -e 512 -c 2 -a 0 -i 7 -k AGT 
- -t 0.061440000 -s 0 -d -1 -p cbr -e 512 -c 2 -a 0 -i 7 -k AGT
h -t 0.061440000 -s 0 -d -1 -p cbr -e 512 -c 2 -a 0 -i 7 -k AGT
+ -t 0.081920000 -s 0 -d -1 -p cbr -e 512 -c 2 -a 0 -i 8 -k AGT 
- -t 0.081920000 -s 0 -d -1 -p cbr -e 512 -c 2 -a 0 -i 8 -k AGT
h -t 0.081920000 -s 0 -d -1 -p cbr -e 512 -c 2 -a 0 -i 8 -k AGT
+ -t 0.102400000 -s 0 -d -1 -p cbr -e 512 -c 2 -a 0 -i 9 -k AGT 
- -t 0.102400000 -s 0 -d -1 -p cbr -e 512 -c 2 -a 0 -i 9 -k AGT
h -t 0.102400000 -s 0 -d -1 -p cbr -e 512 -c 2 -a 0 -i 9 -k AGT
+ -t 0.122880000 -s 0 -d -1 -p cbr -e 512 -c 2 -a 0 -i 10 -k AGT 
- -t 0.122880000 -s 0 -d -1 -p cbr -e 512 -c 2 -a 0 -i 10 -k AGT
h -t 0.122880000 -s 0 -d -1 -p cbr -e 512 -c 2 -a 0 -i 10 -k AGT
+ -t 0.143360000 -s 0 -d -1 -p cbr -e 512 -c 2 -a 0 -i 11 -k AGT 
- -t 0.143360000 -s 0 -d -1 -p cbr -e 512 -c 2 -a 0 -i 11 -k AGT
h -t 0.143360000 -s 0 -d -1 -p cbr -e 512 -c 2 -a 0 -i 11 -k AGT
+ -t 0.159724163 -s 5 -d -1 -p IMEP -e 34 -c 2 -a 0 -i 12 -k RTR 
- -t 0.159724163 -s 5 -d -1 -p IMEP -e 34 -c 2 -a 0 -i 12 -k RTR
h -t 0.159724163 -s 5 -d -1 -p IMEP -e 34 -c 2 -a 0 -i 12 -k RTR
+ -t 0.162906680 -s 0 -d -1 -p IMEP -e 52 -c 2 -a 0 -i 16 -k RTR 
- -t 0.162906680 -s 0 -d -1 -p IMEP -e 52 -c 2 -a 0 -i 16 -k RTR
h -t 0.162906680 -s 0 -d -1 -p IMEP -e 52 -c 2 -a 0 -i 16 -k RTR
+ -t 0.163840000 -s 0 -d -1 -p cbr -e 512 -c 2 -a 0 -i 17 -k AGT 
- -t 0.163840000 -s 0 -d -1 -p cbr -e 512 -c 2 -a 0 -i 17 -k AGT
h -t 0.163840000 -s 0 -d -1 -p cbr -e 512 -c 2 -a 0 -i 17 -k AGT
+ -t 0.163840000 -s 0 -d 5 -p cbr -e 532 -c 2 -a 0 -i 17 -k RTR 
- -t 0.163840000 -s 0 -d 5 -p cbr -e 532 -c 2 -a 0 -i 17 -k RTR
h -t 0.163840000 -s 0 -d 5 -p cbr -e 532 -c 2 -a 0 -i 17 -k RTR
r -t 0.172667181 -s 5 -d 5 -p cbr -e 532 -c 2 -a 0 -i 17 -k AGT
+ -t 0.184320000 -s 0 -d -1 -p cbr -e 512 -c 2 -a 0 -i 18 -k AGT 
- -t 0.184320000 -s 0 -d -1 -p cbr -e 512 -c 2 -a 0 -i 18 -k AGT
h -t 0.184320000 -s 0 -d -1 -p cbr -e 512 -c 2 -a 0 -i 18 -k AGT
+ -t 0.184320000 -s 0 -d 5 -p cbr -e 532 -c 2 -a 0 -i 18 -k RTR 
- -t 0.184320000 -s 0 -d 5 -p cbr -e 532 -c 2 -a 0 -i 18 -k RTR
h -t 0.184320000 -s 0 -d 5 -p cbr -e 532 -c 2 -a 0 -i 18 -k RTR
r -t 0.190177500 -s 5 -d 5 -p cbr -e 532 -c 2 -a 0 -i 18 -k AGT
+ -t 0.195029401 -s 1 -d -1 -p IMEP -e 38 -c 2 -a 0 -i 19 -k RTR 
- -t 0.195029401 -s 1 -d -1 -p IMEP -e 38 -c 2 -a 0 -i 19 -k RTR
h -t 0.195029401 -s 1 -d -1 -p IMEP -e 38 -c 2 -a 0 -i 19 -k RTR
+ -t 0.200145087 -s 5 -d -1 -p IMEP -e 56 -c 2 -a 0 -i 25 -k RTR 
- -t 0.200145087 -s 5 -d -1 -p IMEP -e 56 -c 2 -a 0 -i 25 -k RTR
h -t 0.200145087 -s 5 -d -1 -p IMEP -e 56 -c 2 -a 0 -i 25 -k RTR
+ -t 0.204128353 -s 0 -d -1 -p IMEP -e 80 -c 2 -a 0 -i 30 -k RTR 
- -t 0.204128353 -s 0 -d -1 -p IMEP -e 80 -c 2 -a 0 -i 30 -k RTR
h -t 0.204128353 -s 0 -d -1 -p IMEP -e 80 -c 2 -a 0 -i 30 -k RTR
+ -t 0.204800000 -s 0 -d -1 -p cbr -e 512 -c 2 -a 0 -i 31 -k AGT 
- -t 0.204800000 -s 0 -d -1 -p cbr -e 512 -c 2 -a 0 -i 31 -k AGT
h -t 0.204800000 -s 0 -d -1 -p cbr -e 512 -c 2 -a 0 -i 31 -k AGT
+ -t 0.204800000 -s 0 -d 5 -p cbr -e 532 -c 2 -a 0 -i 31 -k RTR 
- -t 0.204800000 -s 0 -d 5 -p cbr -e 532 -c 2 -a 0 -i 31 -k RTR
h -t 0.204800000 -s 0 -d 5 -p cbr -e 532 -c 2 -a 0 -i 31 -k RTR
+ -t 0.209796168 -s 1 -d -1 -p IMEP -e 86 -c 2 -a 0 -i 36 -k RTR 
- -t 0.209796168 -s 1 -d -1 -p IMEP -e 86 -c 2 -a 0 -i 36 -k RTR
h -t 0.209796168 -s 1 -d -1 -p IMEP -e 86 -c 2 -a 0 -i 36 -k RTR
r -t 0.211679853 -s 5 -d 5 -p cbr -e 532 -c 2 -a 0 -i 31 -k AGT
+ -t 0.214383918 -s 5 -d -1 -p IMEP -e 46 -c 2 -a 0 -i 39 -k RTR 
- -t 0.214383918 -s 5 -d -1 -p IMEP -e 46 -c 2 -a 0 -i 39 -k RTR
h -t 0.214383918 -s 5 -d -1 -p IMEP -e 46 -c 2 -a 0 -i 39 -k RTR
+ -t 0.222151784 -s 0 -d -1 -p IMEP -e 68 -c 2 -a 0 -i 41 -k RTR 
- -t 0.222151784 -s 0 -d -1 -p IMEP -e 68 -c 2 -a 0 -i 41 -k RTR
h -t 0.222151784 -s 0 -d -1 -p IMEP -e 68 -c 2 -a 0 -i 41 -k RTR
+ -t 0.225280000 -s 0 -d -1 -p cbr -e 512 -c 2 -a 0 -i 42 -k AGT 
- -t 0.225280000 -s 0 -d -1 -p cbr -e 512 -c 2 -a 0 -i 42 -k AGT
h -t 0.225280000 -s 0 -d -1 -p cbr -e 512 -c 2 -a 0 -i 42 -k AGT
+ -t 0.225280000 -s 0 -d 5 -p cbr -e 532 -c 2 -a 0 -i 42 -k RTR 
- -t 0.225280000 -s 0 -d 5 -p cbr -e 532 -c 2 -a 0 -i 42 -k RTR
h -t 0.225280000 -s 0 -d 5 -p cbr -e 532 -c 2 -a 0 -i 42 -k RTR
r -t 0.230897500 -s 5 -d 5 -p cbr -e 532 -c 2 -a 0 -i 42 -k AGT
+ -t 0.245760000 -s 0 -d -1 -p cbr -e 512 -c 2 -a 0 -i 43 -k AGT 
- -t 0.245760000 -s 0 -d -1 -p cbr -e 512 -c 2 -a 0 -i 43 -k AGT
h -t 0.245760000 -s 0 -d -1 -p cbr -e 512 -c 2 -a 0 -i 43 -k AGT
+ -t 0.245760000 -s 0 -d 5 -p cbr -e 532 -c 2 -a 0 -i 43 -k RTR 
- -t 0.245760000 -s 0 -d 5 -p cbr -e 532 -c 2 -a 0 -i 43 -k RTR
h -t 0.245760000 -s 0 -d 5 -p cbr -e 532 -c 2 -a 0 -i 43 -k RTR
r -t 0.251757500 -s 5 -d 5 -p cbr -e 532 -c 2 -a 0 -i 43 -k AGT
+ -t 0.266240000 -s 0 -d -1 -p cbr -e 512 -c 2 -a 0 -i 44 -k AGT 
- -t 0.266240000 -s 0 -d -1 -p cbr -e 512 -c 2 -a 0 -i 44 -k AGT
h -t 0.266240000 -s 0 -d -1 -p cbr -e 512 -c 2 -a 0 -i 44 -k AGT
+ -t 0.266240000 -s 0 -d 5 -p cbr -e 532 -c 2 -a 0 -i 44 -k RTR 
- -t 0.266240000 -s 0 -d 5 -p cbr -e 532 -c 2 -a 0 -i 44 -k RTR
h -t 0.266240000 -s 0 -d 5 -p cbr -e 532 -c 2 -a 0 -i 44 -k RTR
r -t 0.271917500 -s 5 -d 5 -p cbr -e 532 -c 2 -a 0 -i 44 -k AGT
+ -t 0.286720000 -s 0 -d -1 -p cbr -e 512 -c 2 -a 0 -i 45 -k AGT 
- -t 0.286720000 -s 0 -d -1 -p cbr -e 512 -c 2 -a 0 -i 45 -k AGT
h -t 0.286720000 -s 0 -d -1 -p cbr -e 512 -c 2 -a 0 -i 45 -k AGT
+ -t 0.286720000 -s 0 -d 5 -p cbr -e 532 -c 2 -a 0 -i 45 -k RTR 
- -t 0.286720000 -s 0 -d 5 -p cbr -e 532 -c 2 -a 0 -i 45 -k RTR
h -t 0.286720000 -s 0 -d 5 -p cbr -e 532 -c 2 -a 0 -i 45 -k RTR
r -t 0.292697500 -s 5 -d 5 -p cbr -e 532 -c 2 -a 0 -i 45 -k AGT
+ -t 0.307200000 -s 0 -d -1 -p cbr -e 512 -c 2 -a 0 -i 46 -k AGT 
- -t 0.307200000 -s 0 -d -1 -p cbr -e 512 -c 2 -a 0 -i 46 -k AGT
h -t 0.307200000 -s 0 -d -1 -p cbr -e 512 -c 2 -a 0 -i 46 -k AGT
+ -t 0.307200000 -s 0 -d 5 -p cbr -e 532 -c 2 -a 0 -i 46 -k RTR 
- -t 0.307200000 -s 0 -d 5 -p cbr -e 532 -c 2 -a 0 -i 46 -k RTR
h -t 0.307200000 -s 0 -d 5 -p cbr -e 532 -c 2 -a 0 -i 46 -k RTR
r -t 0.312917500 -s 5 -d 5 -p cbr -e 532 -c 2 -a 0 -i 46 -k AGT
+ -t 0.327680000 -s 0 -d -1 -p cbr -e 512 -c 2 -a 0 -i 47 -k AGT 
- -t 0.327680000 -s 0 -d -1 -p cbr -e 512 -c 2 -a 0 -i 47 -k AGT
h -t 0.327680000 -s 0 -d -1 -p cbr -e 512 -c 2 -a 0 -i 47 -k AGT
+ -t 0.327680000 -s 0 -d 5 -p cbr -e 532 -c 2 -a 0 -i 47 -k RTR 
- -t 0.327680000 -s 0 -d 5 -p cbr -e 532 -c 2 -a 0 -i 47 -k RTR
h -t 0.327680000 -s 0 -d 5 -p cbr -e 532 -c 2 -a 0 -i 47 -k RTR
r -t 0.333337500 -s 5 -d 5 -p cbr -e 532 -c 2 -a 0 -i 47 -k AGT
+ -t 0.348160000 -s 0 -d -1 -p cbr -e 512 -c 2 -a 0 -i 48 -k AGT 
- -t 0.348160000 -s 0 -d -1 -p cbr -e 512 -c 2 -a 0 -i 48 -k AGT
h -t 0.348160000 -s 0 -d -1 -p cbr -e 512 -c 2 -a 0 -i 48 -k AGT
+ -t 0.348160000 -s 0 -d 5 -p cbr -e 532 -c 2 -a 0 -i 48 -k RTR 
- -t 0.348160000 -s 0 -d 5 -p cbr -e 532 -c 2 -a 0 -i 48 -k RTR
h -t 0.348160000 -s 0 -d 5 -p cbr -e 532 -c 2 -a 0 -i 48 -k RTR
r -t 0.353737500 -s 5 -d 5 -p cbr -e 532 -c 2 -a 0 -i 48 -k AGT
+ -t 0.368640000 -s 0 -d -1 -p cbr -e 512 -c 2 -a 0 -i 49 -k AGT 
- -t 0.368640000 -s 0 -d -1 -p cbr -e 512 -c 2 -a 0 -i 49 -k AGT
h -t 0.368640000 -s 0 -d -1 -p cbr -e 512 -c 2 -a 0 -i 49 -k AGT
+ -t 0.368640000 -s 0 -d 5 -p cbr -e 532 -c 2 -a 0 -i 49 -k RTR 
- -t 0.368640000 -s 0 -d 5 -p cbr -e 532 -c 2 -a 0 -i 49 -k RTR
h -t 0.368640000 -s 0 -d 5 -p cbr -e 532 -c 2 -a 0 -i 49 -k RTR
r -t 0.374137500 -s 5 -d 5 -p cbr -e 532 -c 2 -a 0 -i 49 -k AGT
+ -t 0.380932170 -s 2 -d -1 -p IMEP -e 34 -c 2 -a 0 -i 50 -k RTR 
- -t 0.380932170 -s 2 -d -1 -p IMEP -e 34 -c 2 -a 0 -i 50 -k RTR
h -t 0.380932170 -s 2 -d -1 -p IMEP -e 34 -c 2 -a 0 -i 50 -k RTR
+ -t 0.383856115 -s 1 -d -1 -p IMEP -e 80 -c 2 -a 0 -i 56 -k RTR 
- -t 0.383856115 -s 1 -d -1 -p IMEP -e 80 -c 2 -a 0 -i 56 -k RTR
h -t 0.383856115 -s 1 -d -1 -p IMEP -e 80 -c 2 -a 0 -i 56 -k RTR
+ -t 0.385982783 -s 2 -d -1 -p IMEP -e 62 -c 2 -a 0 -i 63 -k RTR 
- -t 0.385982783 -s 2 -d -1 -p IMEP -e 62 -c 2 -a 0 -i 63 -k RTR
h -t 0.385982783 -s 2 -d -1 -p IMEP -e 62 -c 2 -a 0 -i 63 -k RTR
+ -t 0.389120000 -s 0 -d -1 -p cbr -e 512 -c 2 -a 0 -i 64 -k AGT 
- -t 0.389120000 -s 0 -d -1 -p cbr -e 512 -c 2 -a 0 -i 64 -k AGT
h -t 0.389120000 -s 0 -d -1 -p cbr -e 512 -c 2 -a 0 -i 64 -k AGT
+ -t 0.389120000 -s 0 -d 5 -p cbr -e 532 -c 2 -a 0 -i 64 -k RTR 
- -t 0.389120000 -s 0 -d 5 -p cbr -e 532 -c 2 -a 0 -i 64 -k RTR
h -t 0.389120000 -s 0 -d 5 -p cbr -e 532 -c 2 -a 0 -i 64 -k RTR
+ -t 0.390429767 -s 0 -d -1 -p IMEP -e 60 -c 2 -a 0 -i 65 -k RTR 
- -t 0.390429767 -s 0 -d -1 -p IMEP -e 60 -c 2 -a 0 -i 65 -k RTR
h -t 0.390429767 -s 0 -d -1 -p IMEP -e 60 -c 2 -a 0 -i 65 -k RTR
+ -t 0.393244942 -s 5 -d -1 -p IMEP -e 46 -c 2 -a 0 -i 66 -k RTR 
- -t 0.393244942 -s 5 -d -1 -p IMEP -e 46 -c 2 -a 0 -i 66 -k RTR
h -t 0.393244942 -s 5 -d -1 -p IMEP -e 46 -c 2 -a 0 -i 66 -k RTR
r -t 0.395217500 -s 5 -d 5 -p cbr -e 532 -c 2 -a 0 -i 64 -k AGT
+ -t 0.409600000 -s 0 -d -1 -p cbr -e 512 -c 2 -a 0 -i 68 -k AGT 
- -t 0.409600000 -s 0 -d -1 -p cbr -e 512 -c 2 -a 0 -i 68 -k AGT
h -t 0.409600000 -s 0 -d -1 -p cbr -e 512 -c 2 -a 0 -i 68 -k AGT
+ -t 0.409600000 -s 0 -d 5 -p cbr -e 532 -c 2 -a 0 -i 68 -k RTR 
- -t 0.409600000 -s 0 -d 5 -p cbr -e 532 -c 2 -a 0 -i 68 -k RTR
h -t 0.409600000 -s 0 -d 5 -p cbr -e 532 -c 2 -a 0 -i 68 -k RTR
r -t 0.415537500 -s 5 -d 5 -p cbr -e 532 -c 2 -a 0 -i 68 -k AGT
+ -t 0.430080000 -s 0 -d -1 -p cbr -e 512 -c 2 -a 0 -i 69 -k AGT 
- -t 0.430080000 -s 0 -d -1 -p cbr -e 512 -c 2 -a 0 -i 69 -k AGT
h -t 0.430080000 -s 0 -d -1 -p cbr -e 512 -c 2 -a 0 -i 69 -k AGT
+ -t 0.430080000 -s 0 -d 5 -p cbr -e 532 -c 2 -a 0 -i 69 -k RTR 
- -t 0.430080000 -s 0 -d 5 -p cbr -e 532 -c 2 -a 0 -i 69 -k RTR
h -t 0.430080000 -s 0 -d 5 -p cbr -e 532 -c 2 -a 0 -i 69 -k RTR
r -t 0.435877500 -s 5 -d 5 -p cbr -e 532 -c 2 -a 0 -i 69 -k AGT
+ -t 0.450560000 -s 0 -d -1 -p cbr -e 512 -c 2 -a 0 -i 70 -k AGT 
- -t 0.450560000 -s 0 -d -1 -p cbr -e 512 -c 2 -a 0 -i 70 -k AGT
h -t 0.450560000 -s 0 -d -1 -p cbr -e 512 -c 2 -a 0 -i 70 -k AGT
+ -t 0.450560000 -s 0 -d 5 -p cbr -e 532 -c 2 -a 0 -i 70 -k RTR 
- -t 0.450560000 -s 0 -d 5 -p cbr -e 532 -c 2 -a 0 -i 70 -k RTR
h -t 0.450560000 -s 0 -d 5 -p cbr -e 532 -c 2 -a 0 -i 70 -k RTR
r -t 0.456357500 -s 5 -d 5 -p cbr -e 532 -c 2 -a 0 -i 70 -k AGT
+ -t 0.471040000 -s 0 -d -1 -p cbr -e 512 -c 2 -a 0 -i 71 -k AGT 
- -t 0.471040000 -s 0 -d -1 -p cbr -e 512 -c 2 -a 0 -i 71 -k AGT
h -t 0.471040000 -s 0 -d -1 -p cbr -e 512 -c 2 -a 0 -i 71 -k AGT
+ -t 0.471040000 -s 0 -d 5 -p cbr -e 532 -c 2 -a 0 -i 71 -k RTR 
- -t 0.471040000 -s 0 -d 5 -p cbr -e 532 -c 2 -a 0 -i 71 -k RTR
h -t 0.471040000 -s 0 -d 5 -p cbr -e 532 -c 2 -a 0 -i 71 -k RTR
r -t 0.476577500 -s 5 -d 5 -p cbr -e 532 -c 2 -a 0 -i 71 -k AGT
+ -t 0.491520000 -s 0 -d -1 -p cbr -e 512 -c 2 -a 0 -i 72 -k AGT 
- -t 0.491520000 -s 0 -d -1 -p cbr -e 512 -c 2 -a 0 -i 72 -k AGT
h -t 0.491520000 -s 0 -d -1 -p cbr -e 512 -c 2 -a 0 -i 72 -k AGT
+ -t 0.491520000 -s 0 -d 5 -p cbr -e 532 -c 2 -a 0 -i 72 -k RTR 
- -t 0.491520000 -s 0 -d 5 -p cbr -e 532 -c 2 -a 0 -i 72 -k RTR
h -t 0.491520000 -s 0 -d 5 -p cbr -e 532 -c 2 -a 0 -i 72 -k RTR
r -t 0.497237501 -s 5 -d 5 -p cbr -e 532 -c 2 -a 0 -i 72 -k AGT
+ -t 0.512000000 -s 0 -d -1 -p cbr -e 512 -c 2 -a 0 -i 73 -k AGT 
- -t 0.512000000 -s 0 -d -1 -p cbr -e 512 -c 2 -a 0 -i 73 -k AGT
h -t 0.512000000 -s 0 -d -1 -p cbr -e 512 -c 2 -a 0 -i 73 -k AGT
+ -t 0.512000000 -s 0 -d 5 -p cbr -e 532 -c 2 -a 0 -i 73 -k RTR 
- -t 0.512000000 -s 0 -d 5 -p cbr -e 532 -c 2 -a 0 -i 73 -k RTR
h -t 0.512000000 -s 0 -d 5 -p cbr -e 532 -c 2 -a 0 -i 73 -k RTR
r -t 0.517657501 -s 5 -d 5 -p cbr -e 532 -c 2 -a 0 -i 73 -k AGT
+ -t 0.532480000 -s 0 -d -1 -p cbr -e 512 -c 2 -a 0 -i 74 -k AGT 
- -t 0.532480000 -s 0 -d -1 -p cbr -e 512 -c 2 -a 0 -i 74 -k AGT
h -t 0.532480000 -s 0 -d -1 -p cbr -e 512 -c 2 -a 0 -i 74 -k AGT
+ -t 0.532480000 -s 0 -d 5 -p cbr -e 532 -c 2 -a 0 -i 74 -k RTR 
- -t 0.532480000 -s 0 -d 5 -p cbr -e 532 -c 2 -a 0 -i 74 -k RTR
h -t 0.532480000 -s 0 -d 5 -p cbr -e 532 -c 2 -a 0 -i 74 -k RTR
r -t 0.538377501 -s 5 -d 5 -p cbr -e 532 -c 2 -a 0 -i 74 -k AGT
+ -t 0.541204528 -s 3 -d -1 -p IMEP -e 34 -c 2 -a 0 -i 75 -k RTR 
- -t 0.541204528 -s 3 -d -1 -p IMEP -e 34 -c 2 -a 0 -i 75 -k RTR
h -t 0.541204528 -s 3 -d -1 -p IMEP -e 34 -c 2 -a 0 -i 75 -k RTR
+ -t 0.543913385 -s 2 -d -1 -p IMEP -e 86 -c 2 -a 0 -i 82 -k RTR 
- -t 0.543913385 -s 2 -d -1 -p IMEP -e 86 -c 2 -a 0 -i 82 -k RTR
h -t 0.543913385 -s 2 -d -1 -p IMEP -e 86 -c 2 -a 0 -i 82 -k RTR
+ -t 0.547562203 -s 3 -d -1 -p IMEP -e 52 -c 2 -a 0 -i 87 -k RTR 
- -t 0.547562203 -s 3 -d -1 -p IMEP -e 52 -c 2 -a 0 -i 87 -k RTR
h -t 0.547562203 -s 3 -d -1 -p IMEP -e 52 -c 2 -a 0 -i 87 -k RTR
+ -t 0.550693520 -s 1 -d -1 -p IMEP -e 60 -c 2 -a 0 -i 88 -k RTR 
- -t 0.550693520 -s 1 -d -1 -p IMEP -e 60 -c 2 -a 0 -i 88 -k RTR
h -t 0.550693520 -s 1 -d -1 -p IMEP -e 60 -c 2 -a 0 -i 88 -k RTR
+ -t 0.552960000 -s 0 -d -1 -p cbr -e 512 -c 2 -a 0 -i 90 -k AGT 
- -t 0.552960000 -s 0 -d -1 -p cbr -e 512 -c 2 -a 0 -i 90 -k AGT
h -t 0.552960000 -s 0 -d -1 -p cbr -e 512 -c 2 -a 0 -i 90 -k AGT
+ -t 0.552960000 -s 0 -d 5 -p cbr -e 532 -c 2 -a 0 -i 90 -k RTR 
- -t 0.552960000 -s 0 -d 5 -p cbr -e 532 -c 2 -a 0 -i 90 -k RTR
h -t 0.552960000 -s 0 -d 5 -p cbr -e 532 -c 2 -a 0 -i 90 -k RTR
r -t 0.558477501 -s 5 -d 5 -p cbr -e 532 -c 2 -a 0 -i 90 -k AGT
+ -t 0.573440000 -s 0 -d -1 -p cbr -e 512 -c 2 -a 0 -i 91 -k AGT 
- -t 0.573440000 -s 0 -d -1 -p cbr -e 512 -c 2 -a 0 -i 91 -k AGT
h -t 0.573440000 -s 0 -d -1 -p cbr -e 512 -c 2 -a 0 -i 91 -k AGT
+ -t 0.573440000 -s 0 -d 5 -p cbr -e 532 -c 2 -a 0 -i 91 -k RTR 
- -t 0.573440000 -s 0 -d 5 -p cbr -e 532 -c 2 -a 0 -i 91 -k RTR
h -t 0.573440000 -s 0 -d 5 -p cbr -e 532 -c 2 -a 0 -i 91 -k RTR
r -t 0.578997501 -s 5 -d 5 -p cbr -e 532 -c 2 -a 0 -i 91 -k AGT
+ -t 0.593920000 -s 0 -d -1 -p cbr -e 512 -c 2 -a 0 -i 92 -k AGT 
- -t 0.593920000 -s 0 -d -1 -p cbr -e 512 -c 2 -a 0 -i 92 -k AGT
h -t 0.593920000 -s 0 -d -1 -p cbr -e 512 -c 2 -a 0 -i 92 -k AGT
+ -t 0.593920000 -s 0 -d 5 -p cbr -e 532 -c 2 -a 0 -i 92 -k RTR 
- -t 0.593920000 -s 0 -d 5 -p cbr -e 532 -c 2 -a 0 -i 92 -k RTR
h -t 0.593920000 -s 0 -d 5 -p cbr -e 532 -c 2 -a 0 -i 92 -k RTR
r -t 0.599437501 -s 5 -d 5 -p cbr -e 532 -c 2 -a 0 -i 92 -k AGT
+ -t 0.603369859 -s 0 -d -1 -p IMEP -e 46 -c 2 -a 0 -i 93 -k RTR 
- -t 0.603369859 -s 0 -d -1 -p IMEP -e 46 -c 2 -a 0 -i 93 -k RTR
h -t 0.603369859 -s 0 -d -1 -p IMEP -e 46 -c 2 -a 0 -i 93 -k RTR
+ -t 0.614400000 -s 0 -d -1 -p cbr -e 512 -c 2 -a 0 -i 94 -k AGT 
- -t 0.614400000 -s 0 -d -1 -p cbr -e 512 -c 2 -a 0 -i 94 -k AGT
h -t 0.614400000 -s 0 -d -1 -p cbr -e 512 -c 2 -a 0 -i 94 -k AGT
+ -t 0.614400000 -s 0 -d 5 -p cbr -e 532 -c 2 -a 0 -i 94 -k RTR 
- -t 0.614400000 -s 0 -d 5 -p cbr -e 532 -c 2 -a 0 -i 94 -k RTR
h -t 0.614400000 -s 0 -d 5 -p cbr -e 532 -c 2 -a 0 -i 94 -k RTR
r -t 0.620277501 -s 5 -d 5 -p cbr -e 532 -c 2 -a 0 -i 94 -k AGT
+ -t 0.634880000 -s 0 -d -1 -p cbr -e 512 -c 2 -a 0 -i 95 -k AGT 
- -t 0.634880000 -s 0 -d -1 -p cbr -e 512 -c 2 -a 0 -i 95 -k AGT
h -t 0.634880000 -s 0 -d -1 -p cbr -e 512 -c 2 -a 0 -i 95 -k AGT
+ -t 0.634880000 -s 0 -d 5 -p cbr -e 532 -c 2 -a 0 -i 95 -k RTR 
- -t 0.634880000 -s 0 -d 5 -p cbr -e 532 -c 2 -a 0 -i 95 -k RTR
h -t 0.634880000 -s 0 -d 5 -p cbr -e 532 -c 2 -a 0 -i 95 -k RTR
r -t 0.640697501 -s 5 -d 5 -p cbr -e 532 -c 2 -a 0 -i 95 -k AGT
+ -t 0.655360000 -s 0 -d -1 -p cbr -e 512 -c 2 -a 0 -i 96 -k AGT 
- -t 0.655360000 -s 0 -d -1 -p cbr -e 512 -c 2 -a 0 -i 96 -k AGT
h -t 0.655360000 -s 0 -d -1 -p cbr -e 512 -c 2 -a 0 -i 96 -k AGT
+ -t 0.655360000 -s 0 -d 5 -p cbr -e 532 -c 2 -a 0 -i 96 -k RTR 
- -t 0.655360000 -s 0 -d 5 -p cbr -e 532 -c 2 -a 0 -i 96 -k RTR
h -t 0.655360000 -s 0 -d 5 -p cbr -e 532 -c 2 -a 0 -i 96 -k RTR
r -t 0.661397501 -s 5 -d 5 -p cbr -e 532 -c 2 -a 0 -i 96 -k AGT
+ -t 0.662906680 -s 0 -d -1 -p IMEP -e 42 -c 2 -a 0 -i 97 -k RTR 
- -t 0.662906680 -s 0 -d -1 -p IMEP -e 42 -c 2 -a 0 -i 97 -k RTR
h -t 0.662906680 -s 0 -d -1 -p IMEP -e 42 -c 2 -a 0 -i 97 -k RTR
+ -t 0.675840000 -s 0 -d -1 -p cbr -e 512 -c 2 -a 0 -i 98 -k AGT 
- -t 0.675840000 -s 0 -d -1 -p cbr -e 512 -c 2 -a 0 -i 98 -k AGT
h -t 0.675840000 -s 0 -d -1 -p cbr -e 512 -c 2 -a 0 -i 98 -k AGT
+ -t 0.675840000 -s 0 -d 5 -p cbr -e 532 -c 2 -a 0 -i 98 -k RTR 
- -t 0.675840000 -s 0 -d 5 -p cbr -e 532 -c 2 -a 0 -i 98 -k RTR
h -t 0.675840000 -s 0 -d 5 -p cbr -e 532 -c 2 -a 0 -i 98 -k RTR
r -t 0.681337501 -s 5 -d 5 -p cbr -e 532 -c 2 -a 0 -i 98 -k AGT
+ -t 0.695395338 -s 4 -d -1 -p IMEP -e 34 -c 2 -a 0 -i 99 -k RTR 
- -t 0.695395338 -s 4 -d -1 -p IMEP -e 34 -c 2 -a 0 -i 99 -k RTR
h -t 0.695395338 -s 4 -d -1 -p IMEP -e 34 -c 2 -a 0 -i 99 -k RTR
+ -t 0.696320000 -s 0 -d -1 -p cbr -e 512 -c 2 -a 0 -i 105 -k AGT 
- -t 0.696320000 -s 0 -d -1 -p cbr -e 512 -c 2 -a 0 -i 105 -k AGT
h -t 0.696320000 -s 0 -d -1 -p cbr -e 512 -c 2 -a 0 -i 105 -k AGT
+ -t 0.696320000 -s 0 -d 5 -p cbr -e 532 -c 2 -a 0 -i 105 -k RTR 
- -t 0.696320000 -s 0 -d 5 -p cbr -e 532 -c 2 -a 0 -i 105 -k RTR
h -t 0.696320000 -s 0 -d 5 -p cbr -e 532 -c 2 -a 0 -i 105 -k RTR
+ -t 0.696818983 -s 3 -d -1 -p IMEP -e 86 -c 2 -a 0 -i 106 -k RTR 
- -t 0.696818983 -s 3 -d -1 -p IMEP -e 86 -c 2 -a 0 -i 106 -k RTR
h -t 0.696818983 -s 3 -d -1 -p IMEP -e 86 -c 2 -a 0 -i 106 -k RTR
+ -t 0.700145087 -s 5 -d -1 -p IMEP -e 42 -c 2 -a 0 -i 109 -k RTR 
- -t 0.700145087 -s 5 -d -1 -p IMEP -e 42 -c 2 -a 0 -i 109 -k RTR
h -t 0.700145087 -s 5 -d -1 -p IMEP -e 42 -c 2 -a 0 -i 109 -k RTR
r -t 0.701957501 -s 5 -d 5 -p cbr -e 532 -c 2 -a 0 -i 105 -k AGT
+ -t 0.702911388 -s 4 -d -1 -p IMEP -e 52 -c 2 -a 0 -i 110 -k RTR 
- -t 0.702911388 -s 4 -d -1 -p IMEP -e 52 -c 2 -a 0 -i 110 -k RTR
h -t 0.702911388 -s 4 -d -1 -p IMEP -e 52 -c 2 -a 0 -i 110 -k RTR
+ -t 0.704128353 -s 0 -d -1 -p IMEP -e 56 -c 2 -a 0 -i 112 -k RTR 
- -t 0.704128353 -s 0 -d -1 -p IMEP -e 56 -c 2 -a 0 -i 112 -k RTR
h -t 0.704128353 -s 0 -d -1 -p IMEP -e 56 -c 2 -a 0 -i 112 -k RTR
+ -t 0.709796168 -s 1 -d -1 -p IMEP -e 82 -c 2 -a 0 -i 113 -k RTR 
- -t 0.709796168 -s 1 -d -1 -p IMEP -e 82 -c 2 -a 0 -i 113 -k RTR
h -t 0.709796168 -s 1 -d -1 -p IMEP -e 82 -c 2 -a 0 -i 113 -k RTR
+ -t 0.714383918 -s 5 -d -1 -p IMEP -e 42 -c 2 -a 0 -i 115 -k RTR 
- -t 0.714383918 -s 5 -d -1 -p IMEP -e 42 -c 2 -a 0 -i 115 -k RTR
h -t 0.714383918 -s 5 -d -1 -p IMEP -e 42 -c 2 -a 0 -i 115 -k RTR
+ -t 0.716800000 -s 0 -d -1 -p cbr -e 512 -c 2 -a 0 -i 117 -k AGT 
- -t 0.716800000 -s 0 -d -1 -p cbr -e 512 -c 2 -a 0 -i 117 -k AGT
h -t 0.716800000 -s 0 -d -1 -p cbr -e 512 -c 2 -a 0 -i 117 -k AGT
+ -t 0.716800000 -s 0 -d 5 -p cbr -e 532 -c 2 -a 0 -i 117 -k RTR 
- -t 0.716800000 -s 0 -d 5 -p cbr -e 532 -c 2 -a 0 -i 117 -k RTR
h -t 0.716800000 -s 0 -d 5 -p cbr -e 532 -c 2 -a 0 -i 117 -k RTR
+ -t 0.722151784 -s 0 -d -1 -p IMEP -e 46 -c 2 -a 0 -i 118 -k RTR 
- -t 0.722151784 -s 0 -d -1 -p IMEP -e 46 -c 2 -a 0 -i 118 -k RTR
h -t 0.722151784 -s 0 -d -1 -p IMEP -e 46 -c 2 -a 0 -i 118 -k RTR
r -t 0.722837501 -s 5 -d 5 -p cbr -e 532 -c 2 -a 0 -i 117 -k AGT
+ -t 0.737280000 -s 0 -d -1 -p cbr -e 512 -c 2 -a 0 -i 119 -k AGT 
- -t 0.737280000 -s 0 -d -1 -p cbr -e 512 -c 2 -a 0 -i 119 -k AGT
h -t 0.737280000 -s 0 -d -1 -p cbr -e 512 -c 2 -a 0 -i 119 -k AGT
+ -t 0.737280000 -s 0 -d 5 -p cbr -e 532 -c 2 -a 0 -i 119 -k RTR 
- -t 0.737280000 -s 0 -d 5 -p cbr -e 532 -c 2 -a 0 -i 119 -k RTR
h -t 0.737280000 -s 0 -d 5 -p cbr -e 532 -c 2 -a 0 -i 119 -k RTR
r -t 0.743137501 -s 5 -d 5 -p cbr -e 532 -c 2 -a 0 -i 119 -k AGT
+ -t 0.757760000 -s 0 -d -1 -p cbr -e 512 -c 2 -a 0 -i 120 -k AGT 
- -t 0.757760000 -s 0 -d -1 -p cbr -e 512 -c 2 -a 0 -i 120 -k AGT
h -t 0.757760000 -s 0 -d -1 -p cbr -e 512 -c 2 -a 0 -i 120 -k AGT
+ -t 0.757760000 -s 0 -d 5 -p cbr -e 532 -c 2 -a 0 -i 120 -k RTR 
- -t 0.757760000 -s 0 -d 5 -p cbr -e 532 -c 2 -a 0 -i 120 -k RTR
h -t 0.757760000 -s 0 -d 5 -p cbr -e 532 -c 2 -a 0 -i 120 -k RTR
r -t 0.763337501 -s 5 -d 5 -p cbr -e 532 -c 2 -a 0 -i 120 -k AGT
+ -t 0.778240000 -s 0 -d -1 -p cbr -e 512 -c 2 -a 0 -i 121 -k AGT 
- -t 0.778240000 -s 0 -d -1 -p cbr -e 512 -c 2 -a 0 -i 121 -k AGT
h -t 0.778240000 -s 0 -d -1 -p cbr -e 512 -c 2 -a 0 -i 121 -k AGT
+ -t 0.778240000 -s 0 -d 5 -p cbr -e 532 -c 2 -a 0 -i 121 -k RTR 
- -t 0.778240000 -s 0 -d 5 -p cbr -e 532 -c 2 -a 0 -i 121 -k RTR
h -t 0.778240000 -s 0 -d 5 -p cbr -e 532 -c 2 -a 0 -i 121 -k RTR
r -t 0.784037501 -s 5 -d 5 -p cbr -e 532 -c 2 -a 0 -i 121 -k AGT
+ -t 0.798720000 -s 0 -d -1 -p cbr -e 512 -c 2 -a 0 -i 122 -k AGT 
- -t 0.798720000 -s 0 -d -1 -p cbr -e 512 -c 2 -a 0 -i 122 -k AGT
h -t 0.798720000 -s 0 -d -1 -p cbr -e 512 -c 2 -a 0 -i 122 -k AGT
+ -t 0.798720000 -s 0 -d 5 -p cbr -e 532 -c 2 -a 0 -i 122 -k RTR 
- -t 0.798720000 -s 0 -d 5 -p cbr -e 532 -c 2 -a 0 -i 122 -k RTR
h -t 0.798720000 -s 0 -d 5 -p cbr -e 532 -c 2 -a 0 -i 122 -k RTR
r -t 0.804537501 -s 5 -d 5 -p cbr -e 532 -c 2 -a 0 -i 122 -k AGT
+ -t 0.819200000 -s 0 -d -1 -p cbr -e 512 -c 2 -a 0 -i 123 -k AGT 
- -t 0.819200000 -s 0 -d -1 -p cbr -e 512 -c 2 -a 0 -i 123 -k AGT
h -t 0.819200000 -s 0 -d -1 -p cbr -e 512 -c 2 -a 0 -i 123 -k AGT
+ -t 0.819200000 -s 0 -d 5 -p cbr -e 532 -c 2 -a 0 -i 123 -k RTR 
- -t 0.819200000 -s 0 -d 5 -p cbr -e 532 -c 2 -a 0 -i 123 -k RTR
h -t 0.819200000 -s 0 -d 5 -p cbr -e 532 -c 2 -a 0 -i 123 -k RTR
r -t 0.824737501 -s 5 -d 5 -p cbr -e 532 -c 2 -a 0 -i 123 -k AGT
+ -t 0.839680000 -s 0 -d -1 -p cbr -e 512 -c 2 -a 0 -i 124 -k AGT 
- -t 0.839680000 -s 0 -d -1 -p cbr -e 512 -c 2 -a 0 -i 124 -k AGT
h -t 0.839680000 -s 0 -d -1 -p cbr -e 512 -c 2 -a 0 -i 124 -k AGT
+ -t 0.839680000 -s 0 -d 5 -p cbr -e 532 -c 2 -a 0 -i 124 -k RTR 
- -t 0.839680000 -s 0 -d 5 -p cbr -e 532 -c 2 -a 0 -i 124 -k RTR
h -t 0.839680000 -s 0 -d 5 -p cbr -e 532 -c 2 -a 0 -i 124 -k RTR
r -t 0.845677502 -s 5 -d 5 -p cbr -e 532 -c 2 -a 0 -i 124 -k AGT
+ -t 0.860160000 -s 0 -d -1 -p cbr -e 512 -c 2 -a 0 -i 125 -k AGT 
- -t 0.860160000 -s 0 -d -1 -p cbr -e 512 -c 2 -a 0 -i 125 -k AGT
h -t 0.860160000 -s 0 -d -1 -p cbr -e 512 -c 2 -a 0 -i 125 -k AGT
+ -t 0.860160000 -s 0 -d 5 -p cbr -e 532 -c 2 -a 0 -i 125 -k RTR 
- -t 0.860160000 -s 0 -d 5 -p cbr -e 532 -c 2 -a 0 -i 125 -k RTR
h -t 0.860160000 -s 0 -d 5 -p cbr -e 532 -c 2 -a 0 -i 125 -k RTR
r -t 0.866257502 -s 5 -d 5 -p cbr -e 532 -c 2 -a 0 -i 125 -k AGT
+ -t 0.880640000 -s 0 -d -1 -p cbr -e 512 -c 2 -a 0 -i 126 -k AGT 
- -t 0.880640000 -s 0 -d -1 -p cbr -e 512 -c 2 -a 0 -i 126 -k AGT
h -t 0.880640000 -s 0 -d -1 -p cbr -e 512 -c 2 -a 0 -i 126 -k AGT
+ -t 0.880640000 -s 0 -d 5 -p cbr -e 532 -c 2 -a 0 -i 126 -k RTR 
- -t 0.880640000 -s 0 -d 5 -p cbr -e 532 -c 2 -a 0 -i 126 -k RTR
h -t 0.880640000 -s 0 -d 5 -p cbr -e 532 -c 2 -a 0 -i 126 -k RTR
+ -t 0.883856115 -s 1 -d -1 -p IMEP -e 66 -c 2 -a 0 -i 127 -k RTR 
- -t 0.883856115 -s 1 -d -1 -p IMEP -e 66 -c 2 -a 0 -i 127 -k RTR
h -t 0.883856115 -s 1 -d -1 -p IMEP -e 66 -c 2 -a 0 -i 127 -k RTR
+ -t 0.885982783 -s 2 -d -1 -p IMEP -e 62 -c 2 -a 0 -i 128 -k RTR 
- -t 0.885982783 -s 2 -d -1 -p IMEP -e 62 -c 2 -a 0 -i 128 -k RTR
h -t 0.885982783 -s 2 -d -1 -p IMEP -e 62 -c 2 -a 0 -i 128 -k RTR
r -t 0.886697502 -s 5 -d 5 -p cbr -e 532 -c 2 -a 0 -i 126 -k AGT
+ -t 0.890429767 -s 0 -d -1 -p IMEP -e 46 -c 2 -a 0 -i 130 -k RTR 
- -t 0.890429767 -s 0 -d -1 -p IMEP -e 46 -c 2 -a 0 -i 130 -k RTR
h -t 0.890429767 -s 0 -d -1 -p IMEP -e 46 -c 2 -a 0 -i 130 -k RTR
+ -t 0.893244942 -s 5 -d -1 -p IMEP -e 42 -c 2 -a 0 -i 131 -k RTR 
- -t 0.893244942 -s 5 -d -1 -p IMEP -e 42 -c 2 -a 0 -i 131 -k RTR
h -t 0.893244942 -s 5 -d -1 -p IMEP -e 42 -c 2 -a 0 -i 131 -k RTR
+ -t 0.901120000 -s 0 -d -1 -p cbr -e 512 -c 2 -a 0 -i 133 -k AGT 
- -t 0.901120000 -s 0 -d -1 -p cbr -e 512 -c 2 -a 0 -i 133 -k AGT
h -t 0.901120000 -s 0 -d -1 -p cbr -e 512 -c 2 -a 0 -i 133 -k AGT
+ -t 0.901120000 -s 0 -d 5 -p cbr -e 532 -c 2 -a 0 -i 133 -k RTR 
- -t 0.901120000 -s 0 -d 5 -p cbr -e 532 -c 2 -a 0 -i 133 -k RTR
h -t 0.901120000 -s 0 -d 5 -p cbr -e 532 -c 2 -a 0 -i 133 -k RTR
r -t 0.906697502 -s 5 -d 5 -p cbr -e 532 -c 2 -a 0 -i 133 -k AGT
+ -t 0.921600000 -s 0 -d -1 -p cbr -e 512 -c 2 -a 0 -i 134 -k AGT 
- -t 0.921600000 -s 0 -d -1 -p cbr -e 512 -c 2 -a 0 -i 134 -k AGT
h -t 0.921600000 -s 0 -d -1 -p cbr -e 512 -c 2 -a 0 -i 134 -k AGT
+ -t 0.921600000 -s 0 -d 5 -p cbr -e 532 -c 2 -a 0 -i 134 -k RTR 
- -t 0.921600000 -s 0 -d 5 -p cbr -e 532 -c 2 -a 0 -i 134 -k RTR
h -t 0.921600000 -s 0 -d 5 -p cbr -e 532 -c 2 -a 0 -i 134 -k RTR
r -t 0.927557502 -s 5 -d 5 -p cbr -e 532 -c 2 -a 0 -i 134 -k AGT
+ -t 0.942080000 -s 0 -d -1 -p cbr -e 512 -c 2 -a 0 -i 135 -k AGT 
- -t 0.942080000 -s 0 -d -1 -p cbr -e 512 -c 2 -a 0 -i 135 -k AGT
h -t 0.942080000 -s 0 -d -1 -p cbr -e 512 -c 2 -a 0 -i 135 -k AGT
+ -t 0.942080000 -s 0 -d 5 -p cbr -e 532 -c 2 -a 0 -i 135 -k RTR 
- -t 0.942080000 -s 0 -d 5 -p cbr -e 532 -c 2 -a 0 -i 135 -k RTR
h -t 0.942080000 -s 0 -d 5 -p cbr -e 532 -c 2 -a 0 -i 135 -k RTR
+ -t 0.947624409 -s 0 -d -1 -p IMEP -e 70 -c 2 -a 0 -i 136 -k RTR 
- -t 0.947624409 -s 0 -d -1 -p IMEP -e 70 -c 2 -a 0 -i 136 -k RTR
h -t 0.947624409 -s 0 -d -1 -p IMEP -e 70 -c 2 -a 0 -i 136 -k RTR
r -t 0.947737502 -s 5 -d 5 -p cbr -e 532 -c 2 -a 0 -i 135 -k AGT
+ -t 0.962560000 -s 0 -d -1 -p cbr -e 512 -c 2 -a 0 -i 137 -k AGT 
- -t 0.962560000 -s 0 -d -1 -p cbr -e 512 -c 2 -a 0 -i 137 -k AGT
h -t 0.962560000 -s 0 -d -1 -p cbr -e 512 -c 2 -a 0 -i 137 -k AGT
+ -t 0.962560000 -s 0 -d 5 -p cbr -e 532 -c 2 -a 0 -i 137 -k RTR 
- -t 0.962560000 -s 0 -d 5 -p cbr -e 532 -c 2 -a 0 -i 137 -k RTR
h -t 0.962560000 -s 0 -d 5 -p cbr -e 532 -c 2 -a 0 -i 137 -k RTR
r -t 0.968277502 -s 5 -d 5 -p cbr -e 532 -c 2 -a 0 -i 137 -k AGT
+ -t 0.983040000 -s 0 -d -1 -p cbr -e 512 -c 2 -a 0 -i 138 -k AGT 
- -t 0.983040000 -s 0 -d -1 -p cbr -e 512 -c 2 -a 0 -i 138 -k AGT
h -t 0.983040000 -s 0 -d -1 -p cbr -e 512 -c 2 -a 0 -i 138 -k AGT
+ -t 0.983040000 -s 0 -d 5 -p cbr -e 532 -c 2 -a 0 -i 138 -k RTR 
- -t 0.983040000 -s 0 -d 5 -p cbr -e 532 -c 2 -a 0 -i 138 -k RTR
h -t 0.983040000 -s 0 -d 5 -p cbr -e 532 -c 2 -a 0 -i 138 -k RTR
r -t 0.988577502 -s 5 -d 5 -p cbr -e 532 -c 2 -a 0 -i 138 -k AGT
+ -t 1.003520000 -s 0 -d -1 -p cbr -e 512 -c 2 -a 0 -i 141 -k AGT 
- -t 1.003520000 -s 0 -d -1 -p cbr -e 512 -c 2 -a 0 -i 141 -k AGT
h -t 1.003520000 -s 0 -d -1 -p cbr -e 512 -c 2 -a 0 -i 141 -k AGT
+ -t 1.003520000 -s 0 -d 5 -p cbr -e 532 -c 2 -a 0 -i 141 -k RTR 
- -t 1.003520000 -s 0 -d 5 -p cbr -e 532 -c 2 -a 0 -i 141 -k RTR
h -t 1.003520000 -s 0 -d 5 -p cbr -e 532 -c 2 -a 0 -i 141 -k RTR
r -t 1.009077502 -s 5 -d 5 -p cbr -e 532 -c 2 -a 0 -i 141 -k AGT
+ -t 1.024000000 -s 0 -d -1 -p cbr -e 512 -c 2 -a 0 -i 142 -k AGT 
- -t 1.024000000 -s 0 -d -1 -p cbr -e 512 -c 2 -a 0 -i 142 -k AGT
h -t 1.024000000 -s 0 -d -1 -p cbr -e 512 -c 2 -a 0 -i 142 -k AGT
+ -t 1.024000000 -s 0 -d 5 -p cbr -e 532 -c 2 -a 0 -i 142 -k RTR 
- -t 1.024000000 -s 0 -d 5 -p cbr -e 532 -c 2 -a 0 -i 142 -k RTR
h -t 1.024000000 -s 0 -d 5 -p cbr -e 532 -c 2 -a 0 -i 142 -k RTR
r -t 1.029817502 -s 5 -d 5 -p cbr -e 532 -c 2 -a 0 -i 142 -k AGT
+ -t 1.043913385 -s 2 -d -1 -p IMEP -e 76 -c 2 -a 0 -i 143 -k RTR 
- -t 1.043913385 -s 2 -d -1 -p IMEP -e 76 -c 2 -a 0 -i 143 -k RTR
h -t 1.043913385 -s 2 -d -1 -p IMEP -e 76 -c 2 -a 0 -i 143 -k RTR
+ -t 1.044480000 -s 0 -d -1 -p cbr -e 512 -c 2 -a 0 -i 144 -k AGT 
- -t 1.044480000 -s 0 -d -1 -p cbr -e 512 -c 2 -a 0 -i 144 -k AGT
h -t 1.044480000 -s 0 -d -1 -p cbr -e 512 -c 2 -a 0 -i 144 -k AGT
+ -t 1.044480000 -s 0 -d 5 -p cbr -e 532 -c 2 -a 0 -i 144 -k RTR 
- -t 1.044480000 -s 0 -d 5 -p cbr -e 532 -c 2 -a 0 -i 144 -k RTR
h -t 1.044480000 -s 0 -d 5 -p cbr -e 532 -c 2 -a 0 -i 144 -k RTR
+ -t 1.047562203 -s 3 -d -1 -p IMEP -e 52 -c 2 -a 0 -i 145 -k RTR 
- -t 1.047562203 -s 3 -d -1 -p IMEP -e 52 -c 2 -a 0 -i 145 -k RTR
h -t 1.047562203 -s 3 -d -1 -p IMEP -e 52 -c 2 -a 0 -i 145 -k RTR
+ -t 1.050693520 -s 1 -d -1 -p IMEP -e 56 -c 2 -a 0 -i 146 -k RTR 
- -t 1.050693520 -s 1 -d -1 -p IMEP -e 56 -c 2 -a 0 -i 146 -k RTR
h -t 1.050693520 -s 1 -d -1 -p IMEP -e 56 -c 2 -a 0 -i 146 -k RTR
r -t 1.051198221 -s 5 -d 5 -p cbr -e 532 -c 2 -a 0 -i 144 -k AGT
+ -t 1.064960000 -s 0 -d -1 -p cbr -e 512 -c 2 -a 0 -i 148 -k AGT 
- -t 1.064960000 -s 0 -d -1 -p cbr -e 512 -c 2 -a 0 -i 148 -k AGT
h -t 1.064960000 -s 0 -d -1 -p cbr -e 512 -c 2 -a 0 -i 148 -k AGT
+ -t 1.064960000 -s 0 -d 5 -p cbr -e 532 -c 2 -a 0 -i 148 -k RTR 
- -t 1.064960000 -s 0 -d 5 -p cbr -e 532 -c 2 -a 0 -i 148 -k RTR
h -t 1.064960000 -s 0 -d 5 -p cbr -e 532 -c 2 -a 0 -i 148 -k RTR
r -t 1.070937502 -s 5 -d 5 -p cbr -e 532 -c 2 -a 0 -i 148 -k AGT
+ -t 1.085440000 -s 0 -d -1 -p cbr -e 512 -c 2 -a 0 -i 149 -k AGT 
- -t 1.085440000 -s 0 -d -1 -p cbr -e 512 -c 2 -a 0 -i 149 -k AGT
h -t 1.085440000 -s 0 -d -1 -p cbr -e 512 -c 2 -a 0 -i 149 -k AGT